# TStellate3_CT1 Optimisation
# 20130903+13:45:23
 
#param.w.x[lsr][ts] = 0.0016202	[1e-07,0.3]
#param.w.x[hsr][ts] = 0.00088558	[1e-07,0.3]
#param.w.x[ds][ts] = 0.00040527	[1e-07,0.3]
#param.w.x[tv][ts] = 0.00032426	[1e-07,0.3]
#param.w.x[glg][ts] = 0.00014179	[1e-07,0.3]
# final error=83.506300
# Threshold level 20 
# Threshold rate 0 
# TS exemplar RMP -60.9
# TS exemplar CF 9100
# CV RMS errors:	
# Penalties :	
# IV RMS errors:	
# IV Penalties :	
# Final Error  83.5063   83.5063
# Time	 IV @spl=20 (mV)	 IV @spl=30 (mV)	 IV @spl=40 (mV)
-50.00	-65.000000	-65.000000	-65.000000
-49.90	-64.766934	-64.766934	-64.766934
-49.80	-64.545736	-64.545736	-64.545736
-49.70	-64.335646	-64.335646	-64.335646
-49.60	-64.136115	-64.136115	-64.136115
-49.50	-63.946649	-63.946649	-63.946649
-49.40	-63.766647	-63.766647	-63.766647
-49.30	-63.595652	-63.595652	-63.595652
-49.20	-63.433250	-63.433250	-63.433250
-49.10	-63.279047	-63.279047	-63.279047
-49.00	-63.132590	-63.132590	-63.132590
-48.90	-62.993458	-62.993458	-62.993458
-48.80	-62.861308	-62.861308	-62.861308
-48.70	-62.735827	-62.735827	-62.735827
-48.60	-62.616717	-62.616717	-62.616717
-48.50	-62.503695	-62.503695	-62.504012
-48.40	-62.396372	-62.396372	-62.397270
-48.30	-62.294460	-62.294460	-62.296153
-48.20	-62.197712	-62.197712	-62.200371
-48.10	-62.105895	-62.105895	-62.109654
-48.00	-62.018788	-62.018788	-62.023748
-47.90	-61.936179	-61.936179	-61.942411
-47.80	-61.857864	-61.857864	-61.865418
-47.70	-61.783649	-61.783649	-61.792552
-47.60	-61.713277	-61.713277	-61.723538
-47.50	-61.646526	-61.646526	-61.658144
-47.40	-61.583227	-61.583227	-61.596185
-47.30	-61.523219	-61.523219	-61.537492
-47.20	-61.466349	-61.466349	-61.481904
-47.10	-61.412473	-61.412473	-61.429268
-47.00	-61.361448	-61.361448	-61.379439
-46.90	-61.293588	-61.313139	-61.312725
-46.80	-61.224214	-61.257648	-61.254213
-46.70	-61.154680	-61.188892	-61.182896
-46.60	-61.076064	-61.091847	-61.103446
-46.50	-61.001415	-60.985367	-61.019029
-46.40	-60.910618	-60.903020	-60.941605
-46.30	-60.799494	-60.809952	-60.860495
-46.20	-60.665625	-60.709963	-60.777411
-46.10	-60.535406	-60.615513	-60.674810
-46.00	-60.380810	-60.486883	-60.587678
-45.90	-60.190782	-60.326754	-60.502828
-45.80	-59.994230	-60.134321	-60.372468
-45.70	-59.794228	-59.968361	-60.240368
-45.60	-59.612850	-59.765686	-60.117587
-45.50	-59.445563	-59.517680	-60.012088
-45.40	-59.261907	-59.268560	-59.882591
-45.30	-59.077185	-59.002072	-59.755388
-45.20	-58.879603	-58.723602	-59.611494
-45.10	-58.691889	-58.455406	-59.408664
-45.00	-58.520630	-58.193924	-59.163225
-44.90	-58.311159	-57.960829	-58.900087
-44.80	-57.822443	-57.743325	-58.644420
-44.70	-57.698486	-57.450158	-58.429164
-44.60	-57.567254	-57.157913	-58.232310
-44.50	-57.683451	-56.796795	-58.042442
-44.40	-57.831770	-56.282864	-57.822638
-44.30	-57.926079	-55.653857	-57.595790
-44.20	-57.880199	-55.084891	-57.360154
-44.10	-57.760085	-54.647059	-57.106338
-44.00	-57.630828	-54.154139	-56.709825
-43.90	-57.479467	-54.044535	-56.214852
-43.80	-57.298497	-54.133848	-55.989379
-43.70	-57.064765	-54.353287	-55.812065
-43.60	-56.793932	-54.291096	-55.643280
-43.50	-56.416698	-53.930383	-55.205606
-43.40	-55.822752	-53.511180	-54.994853
-43.30	-54.995594	-52.957089	-54.965149
-43.20	-54.545647	-52.964777	-55.122546
-43.10	-54.257825	-53.214544	-54.980628
-43.00	-54.830624	-53.435623	-54.562647
-42.90	-55.356976	-53.350672	-54.642498
-42.80	-55.877600	-53.220804	-54.821298
-42.70	-56.117805	-53.281750	-55.589947
-42.60	-56.098573	-53.858396	-55.951897
-42.50	-55.751656	-54.446184	-55.888862
-42.40	-55.220738	-54.916419	-55.387596
-42.30	-54.295968	-55.240455	-55.110944
-42.20	-54.190399	-55.305875	-54.876541
-42.10	-54.311120	-55.776597	-55.314575
-42.00	-55.134641	-56.248458	-55.649831
-41.90	-55.719043	-56.693640	-56.025594
-41.80	-55.813492	-56.416156	-56.167634
-41.70	-55.887866	-56.305561	-55.900904
-41.60	-55.743208	-56.045393	-55.695496
-41.50	-55.827895	-56.281621	-55.179088
-41.40	-55.671307	-56.532954	-54.970106
-41.30	-55.162593	-56.751180	-54.768730
-41.20	-54.543566	-57.213328	-54.538296
-41.10	-53.994151	-57.596421	-54.641286
-41.00	-53.816853	-57.959738	-54.830661
-40.90	-53.662905	-58.065520	-55.117516
-40.80	-53.583738	-57.890261	-55.198376
-40.70	-53.108307	-57.605636	-55.057042
-40.60	-53.163378	-57.407345	-55.147165
-40.50	-53.435611	-57.214806	-55.131408
-40.40	-53.816086	-57.060858	-55.123949
-40.30	-54.001561	-56.948972	-55.165901
-40.20	-53.784855	-56.789270	-55.284557
-40.10	-54.281141	-56.946982	-55.371613
-40.00	-55.116030	-57.000502	-55.448573
-39.90	-56.105093	-57.226171	-55.511137
-39.80	-56.865690	-57.107457	-55.671460
-39.70	-57.430642	-57.063686	-55.860883
-39.60	-57.681759	-56.951938	-56.050566
-39.50	-57.876504	-57.025433	-55.848431
-39.40	-57.655756	-56.905250	-55.670006
-39.30	-57.119111	-56.659884	-55.307331
-39.20	-56.919771	-56.383928	-55.435146
-39.10	-56.816979	-56.080591	-55.374489
-39.00	-56.901546	-56.039271	-55.912089
-38.90	-57.061223	-55.781890	-56.332469
-38.80	-56.920275	-55.195437	-56.972429
-38.70	-57.203631	-55.021084	-57.461282
-38.60	-57.336157	-54.681519	-57.652470
-38.50	-57.651899	-54.922410	-57.438720
-38.40	-57.748113	-55.253662	-57.317355
-38.30	-57.650930	-55.581153	-57.109527
-38.20	-57.384442	-55.527641	-57.062752
-38.10	-57.007288	-55.574477	-56.964116
-38.00	-56.273094	-55.635243	-56.898122
-37.90	-55.556165	-55.846263	-56.944253
-37.80	-54.868290	-56.169852	-56.936374
-37.70	-54.395534	-56.302687	-56.670197
-37.60	-54.072853	-56.280338	-55.942653
-37.50	-54.179008	-55.960981	-55.107999
-37.40	-54.447475	-55.919143	-54.195591
-37.30	-54.967594	-55.863073	-54.198459
-37.20	-55.376502	-55.717420	-54.337302
-37.10	-55.752467	-55.778364	-55.181935
-37.00	-56.128671	-55.473261	-55.830990
-36.90	-56.603169	-55.804837	-56.529157
-36.80	-56.902628	-55.770974	-57.016032
-36.70	-57.062423	-56.014610	-56.918948
-36.60	-56.740335	-56.247070	-56.811975
-36.50	-56.518197	-56.592089	-56.750077
-36.40	-56.298750	-56.905905	-57.025472
-36.30	-56.402104	-57.151077	-57.139478
-36.20	-56.641876	-57.387409	-57.283274
-36.10	-56.503638	-57.494662	-57.176534
-36.00	-56.686653	-57.139751	-57.134886
-35.90	-56.891369	-56.725267	-56.591849
-35.80	-57.428372	-56.226927	-56.048360
-35.70	-57.899956	-56.016793	-55.904055
-35.60	-58.123774	-55.891007	-56.135466
-35.50	-58.026179	-55.987249	-56.662450
-35.40	-57.663881	-56.237921	-57.138872
-35.30	-57.253758	-56.290231	-57.396600
-35.20	-57.142869	-56.229198	-57.396578
-35.10	-57.245739	-56.194329	-57.038227
-35.00	-57.567476	-56.178065	-57.117491
-34.90	-57.779799	-56.761496	-57.246252
-34.80	-57.876263	-57.319240	-57.792983
-34.70	-57.781239	-57.787021	-58.180758
-34.60	-57.394322	-58.184032	-58.291911
-34.50	-57.128656	-58.440231	-58.158131
-34.40	-56.961527	-58.689068	-57.877390
-34.30	-56.960095	-58.727259	-57.336275
-34.20	-56.946741	-58.363771	-56.911210
-34.10	-56.565275	-57.561624	-56.301032
-34.00	-56.010869	-57.336647	-56.106232
-33.90	-55.715612	-57.353176	-55.795572
-33.80	-55.671774	-58.076985	-55.757775
-33.70	-56.188819	-58.602517	-55.976696
-33.60	-56.803536	-58.861379	-56.398668
-33.50	-57.378220	-58.827732	-56.829369
-33.40	-57.763186	-58.497381	-56.982712
-33.30	-57.868242	-57.868429	-56.634206
-33.20	-57.685247	-57.344572	-56.297961
-33.10	-57.589081	-57.136497	-56.045401
-33.00	-57.412936	-57.223104	-55.996602
-32.90	-57.463375	-57.230023	-56.090803
-32.80	-57.355895	-57.279365	-56.197417
-32.70	-57.011228	-56.992521	-55.879836
-32.60	-56.640330	-57.161368	-55.477505
-32.50	-56.167702	-57.293643	-54.893964
-32.40	-56.218038	-57.657614	-54.847642
-32.30	-56.299127	-57.751556	-55.475474
-32.20	-56.653108	-57.595167	-56.470604
-32.10	-56.805079	-57.542412	-57.426921
-32.00	-56.764704	-57.402862	-57.850401
-31.90	-56.501325	-57.544399	-57.831457
-31.80	-55.901073	-57.577803	-57.512800
-31.70	-55.007150	-57.499276	-57.057651
-31.60	-54.815037	-57.239501	-56.900962
-31.50	-54.765755	-56.865453	-57.100947
-31.40	-55.275019	-56.661147	-57.491532
-31.30	-55.664447	-56.429970	-57.713032
-31.20	-55.866571	-56.644226	-58.011476
-31.10	-56.019274	-56.778258	-58.122687
-31.00	-56.003809	-57.040023	-58.375956
-30.90	-56.096880	-57.119561	-58.514130
-30.80	-55.914542	-57.035964	-58.481262
-30.70	-55.873567	-56.769929	-58.189295
-30.60	-55.357634	-56.159476	-58.093759
-30.50	-54.256447	-55.642791	-57.976652
-30.40	-53.097992	-54.446526	-58.042972
-30.30	-53.171464	-54.173459	-58.056492
-30.20	-53.803714	-54.250563	-57.957159
-30.10	-55.168096	-55.064270	-57.751846
-30.00	-56.146075	-55.878728	-57.485116
-29.90	-56.832455	-56.025637	-57.124309
-29.80	-57.290122	-55.965119	-56.628382
-29.70	-57.635479	-55.946904	-55.725892
-29.60	-57.714188	-56.037794	-55.256339
-29.50	-57.527695	-56.369937	-54.590081
-29.40	-57.333809	-56.614755	-54.695484
-29.30	-56.897228	-56.838726	-54.777959
-29.20	-56.867106	-57.000146	-54.979667
-29.10	-56.798771	-57.022341	-55.737036
-29.00	-56.819797	-56.873424	-56.399871
-28.90	-56.973252	-56.536160	-57.257398
-28.80	-57.128814	-55.766951	-57.778632
-28.70	-57.319754	-54.636366	-58.042838
-28.60	-57.357756	-53.531155	-58.029754
-28.50	-57.216132	-53.336444	-57.798213
-28.40	-56.874701	-53.804221	-57.312851
-28.30	-56.772694	-54.612179	-57.109733
-28.20	-56.598937	-55.173566	-56.862567
-28.10	-56.719482	-55.907708	-56.840629
-28.00	-56.686660	-56.491782	-56.599665
-27.90	-56.340360	-57.375394	-56.553518
-27.80	-56.171009	-57.871154	-56.346792
-27.70	-55.840129	-58.052474	-56.275102
-27.60	-55.755238	-57.967853	-55.769695
-27.50	-55.851710	-57.591326	-55.439307
-27.40	-55.948205	-57.325538	-54.920906
-27.30	-56.068688	-56.952820	-54.974047
-27.20	-55.977808	-56.553100	-55.333638
-27.10	-55.557936	-55.662375	-55.656198
-27.00	-55.235059	-54.908163	-56.017433
-26.90	-54.620554	-54.175919	-56.200206
-26.80	-54.595291	-54.198544	-55.969266
-26.70	-54.700742	-54.596034	-55.629293
-26.60	-55.158605	-55.208097	-55.309893
-26.50	-55.538029	-56.428427	-55.490994
-26.40	-55.381766	-57.469280	-56.129936
-26.30	-55.329804	-58.484521	-56.979507
-26.20	-55.063695	-59.117018	-57.494770
-26.10	-55.259414	-59.430040	-57.623393
-26.00	-55.482828	-59.539443	-57.263260
-25.90	-55.880820	-59.585207	-57.074071
-25.80	-56.068456	-59.580954	-56.688904
-25.70	-56.020380	-59.480457	-56.842987
-25.60	-55.679342	-59.332287	-56.987409
-25.50	-55.318382	-59.185708	-57.266253
-25.40	-55.299386	-59.042454	-57.266428
-25.30	-55.467108	-58.898112	-56.854217
-25.20	-55.970107	-58.754346	-56.458289
-25.10	-56.239507	-58.600800	-56.242017
-25.00	-56.283199	-58.380103	-56.160223
-24.90	-56.038574	-58.017812	-55.918704
-24.80	-55.276470	-57.604403	-55.594704
-24.70	-54.692043	-57.423888	-55.564478
-24.60	-54.197853	-57.347773	-55.803244
-24.50	-54.320503	-57.328310	-56.341970
-24.40	-54.795358	-57.110071	-56.800265
-24.30	-55.214423	-56.887661	-57.022493
-24.20	-55.806895	-56.428212	-56.796769
-24.10	-56.263918	-56.294530	-56.838653
-24.00	-56.725707	-56.299811	-56.782214
-23.90	-56.914315	-56.511792	-57.135425
-23.80	-57.087220	-56.783168	-57.180600
-23.70	-57.167856	-56.663245	-57.118850
-23.60	-57.398229	-56.538932	-56.942105
-23.50	-57.573484	-56.514053	-56.742649
-23.40	-57.629167	-56.777128	-56.879385
-23.30	-57.524542	-57.199860	-56.823341
-23.20	-57.193068	-57.394286	-56.898947
-23.10	-57.119508	-57.332400	-56.614517
-23.00	-57.044610	-56.940756	-56.298322
-22.90	-57.212317	-56.639797	-55.911387
-22.80	-57.304855	-56.077783	-55.758311
-22.70	-57.272657	-55.960325	-55.425989
-22.60	-57.110757	-55.790120	-55.180394
-22.50	-56.762488	-55.931808	-54.568343
-22.40	-56.411499	-56.078539	-54.500419
-22.30	-56.168900	-55.904680	-54.562443
-22.20	-55.933531	-55.513011	-55.012052
-22.10	-55.487898	-55.195381	-55.824414
-22.00	-55.450609	-54.847604	-56.531421
-21.90	-55.409784	-55.187071	-57.370445
-21.80	-55.785792	-55.363904	-57.828907
-21.70	-55.833574	-55.480656	-58.025972
-21.60	-55.922370	-55.404762	-57.927910
-21.50	-55.650806	-55.390975	-57.566993
-21.40	-55.600485	-55.820014	-57.016633
-21.30	-55.796520	-56.590828	-56.740970
-21.20	-56.129529	-57.367910	-56.606165
-21.10	-56.624729	-57.646332	-57.111334
-21.00	-56.849984	-57.845756	-57.522244
-20.90	-56.834421	-57.828484	-57.758995
-20.80	-56.599746	-57.982247	-57.982006
-20.70	-55.973527	-57.748193	-58.093866
-20.60	-55.641217	-57.281692	-58.341054
-20.50	-55.382686	-56.694197	-58.504812
-20.40	-55.401493	-56.141142	-58.486186
-20.30	-55.622476	-56.135882	-58.232143
-20.20	-55.637468	-56.495452	-58.123217
-20.10	-55.640390	-57.118136	-58.015448
-20.00	-55.634825	-57.394526	-58.144166
-19.90	-55.471832	-57.654223	-58.215886
-19.80	-55.552399	-57.718943	-58.211908
-19.70	-55.282530	-57.965523	-58.124800
-19.60	-55.198551	-58.001052	-57.865097
-19.50	-54.367504	-57.767620	-57.575695
-19.40	-54.415137	-56.957926	-57.500824
-19.30	-54.503833	-56.489993	-57.540774
-19.20	-55.153184	-56.349121	-57.789366
-19.10	-55.813633	-56.800365	-57.913248
-19.00	-56.232531	-57.483954	-57.826946
-18.90	-56.483396	-57.889790	-57.423396
-18.80	-56.308783	-57.974421	-57.216096
-18.70	-55.990181	-57.783485	-56.996406
-18.60	-55.571219	-57.536736	-57.010379
-18.50	-55.757700	-57.433349	-56.821985
-18.40	-55.973487	-57.463617	-56.523675
-18.30	-56.338650	-57.561763	-56.149994
-18.20	-56.237361	-57.595119	-56.139468
-18.10	-56.147826	-57.510633	-56.176626
-18.00	-55.902832	-57.308169	-56.277543
-17.90	-56.290923	-56.979780	-56.475373
-17.80	-56.560202	-56.333088	-56.422863
-17.70	-56.664630	-55.935867	-56.260064
-17.60	-56.200244	-55.201992	-56.036139
-17.50	-56.275399	-54.389876	-55.770067
-17.40	-56.262610	-54.065537	-56.041959
-17.30	-56.940401	-54.188014	-56.488372
-17.20	-57.440386	-54.691895	-57.129690
-17.10	-57.812671	-55.039976	-57.487857
-17.00	-58.074895	-55.198874	-57.590559
-16.90	-58.242161	-55.323261	-57.275069
-16.80	-58.098635	-55.621552	-57.138645
-16.70	-57.823629	-56.323294	-56.984858
-16.60	-57.453207	-56.876434	-56.939090
-16.50	-57.191985	-57.209843	-56.671720
-16.40	-57.057828	-57.040862	-56.361843
-16.30	-57.061451	-57.271018	-56.292964
-16.20	-57.217881	-57.296154	-56.415347
-16.10	-57.607592	-57.759265	-56.760909
-16.00	-58.006899	-57.969999	-56.965039
-15.90	-58.303512	-58.203639	-56.931880
-15.80	-58.316752	-58.244432	-56.581771
-15.70	-58.010742	-58.255291	-56.282985
-15.60	-57.906955	-58.304980	-55.994264
-15.50	-57.739072	-58.426806	-55.674168
-15.40	-57.762808	-58.642954	-55.623146
-15.30	-57.625386	-58.907790	-55.482564
-15.20	-57.654863	-59.041642	-55.356022
-15.10	-57.598267	-58.985290	-54.727206
-15.00	-57.792312	-58.851655	-54.379995
-14.90	-57.852810	-58.641547	-54.012980
-14.80	-57.814361	-58.353553	-53.829908
-14.70	-57.544289	-57.909461	-54.184998
-14.60	-57.412054	-57.556629	-54.624845
-14.50	-57.279322	-57.317226	-55.367101
-14.40	-57.402903	-57.222818	-56.107075
-14.30	-57.532219	-57.071852	-56.148575
-14.20	-57.565135	-56.478424	-55.981975
-14.10	-57.514950	-55.912671	-55.760001
-14.00	-57.354682	-55.713421	-55.497475
-13.90	-57.090737	-55.681080	-55.886872
-13.80	-56.769354	-56.238394	-56.274576
-13.70	-56.686911	-56.436184	-56.864418
-13.60	-56.649371	-56.923722	-57.077644
-13.50	-56.883089	-57.269217	-57.315464
-13.40	-56.979685	-57.679643	-57.200278
-13.30	-56.925235	-57.829588	-57.345632
-13.20	-56.567034	-57.656551	-57.512187
-13.10	-56.473586	-57.249268	-57.740946
-13.00	-56.326109	-56.850310	-57.987510
-12.90	-56.399755	-56.357052	-58.131667
-12.80	-56.209198	-56.485731	-58.148048
-12.70	-55.803519	-56.746339	-58.074623
-12.60	-55.137184	-57.220444	-57.923908
-12.50	-55.132872	-57.407597	-57.640543
-12.40	-55.179856	-57.363219	-57.288696
-12.30	-55.725122	-57.401235	-57.020531
-12.20	-56.188550	-57.459191	-56.783800
-12.10	-56.493509	-57.676853	-56.947004
-12.00	-56.534456	-57.782358	-57.070387
-11.90	-56.681199	-57.734541	-57.402765
-11.80	-56.740770	-57.538815	-57.500171
-11.70	-56.982477	-57.221346	-57.496529
-11.60	-57.061783	-56.685506	-57.370067
-11.50	-56.840748	-56.295717	-57.118578
-11.40	-56.661081	-55.794542	-56.693646
-11.30	-56.277071	-55.779927	-56.526044
-11.20	-56.403350	-55.536146	-56.367276
-11.10	-56.400193	-55.550308	-56.504469
-11.00	-56.426138	-55.284182	-56.520622
-10.90	-56.396872	-55.587874	-56.321643
-10.80	-56.334207	-55.876990	-55.952136
-10.70	-56.565294	-56.042216	-55.796673
-10.60	-56.913130	-56.222637	-55.566105
-10.50	-57.205832	-55.837723	-55.429344
-10.40	-57.310908	-56.162156	-54.987049
-10.30	-57.248876	-56.369534	-54.751061
-10.20	-56.937583	-56.978964	-54.300655
-10.10	-56.684895	-57.310970	-54.313095
-10.00	-56.469784	-57.398216	-54.470216
-9.90	-56.213567	-57.426862	-54.643128
-9.80	-55.971218	-57.370331	-54.892211
-9.70	-55.732131	-57.683251	-54.961669
-9.60	-55.651777	-57.849378	-54.774965
-9.50	-56.026723	-58.220251	-54.773667
-9.40	-56.333908	-58.443622	-54.332765
-9.30	-56.769278	-58.544162	-54.402411
-9.20	-56.924621	-58.496123	-54.690475
-9.10	-56.709671	-58.413859	-55.069846
-9.00	-56.690584	-58.319948	-55.976122
-8.90	-56.569871	-58.186307	-56.558742
-8.80	-56.574346	-58.014623	-57.076718
-8.70	-56.580157	-57.842539	-57.236451
-8.60	-56.597541	-57.648739	-56.817126
-8.50	-56.638704	-57.273160	-56.398747
-8.40	-56.551191	-57.121777	-56.346737
-8.30	-56.319300	-56.975739	-56.662205
-8.20	-56.034245	-57.099246	-57.299028
-8.10	-56.136846	-57.216981	-57.514328
-8.00	-56.278358	-57.245626	-57.595554
-7.90	-56.542361	-57.064625	-57.487904
-7.80	-56.521405	-56.947893	-57.578350
-7.70	-56.230228	-56.949418	-57.805336
-7.60	-55.897724	-57.099975	-58.084745
-7.50	-55.670250	-57.309852	-58.354432
-7.40	-55.824283	-57.458975	-58.473508
-7.30	-56.228507	-57.525383	-58.387668
-7.20	-56.579833	-57.503972	-58.146283
-7.10	-56.833431	-57.443908	-57.786028
-7.00	-57.071180	-57.328296	-57.325063
-6.90	-57.273031	-57.167116	-56.984516
-6.80	-57.551625	-56.828808	-56.630565
-6.70	-57.685020	-56.620502	-56.667228
-6.60	-57.628163	-56.397560	-56.479196
-6.50	-57.292593	-56.227816	-56.797391
-6.40	-57.223746	-56.051518	-56.957896
-6.30	-57.112772	-55.887352	-57.277331
-6.20	-57.182755	-56.030918	-57.489390
-6.10	-57.017023	-56.169908	-57.555054
-6.00	-56.898704	-56.003584	-57.442800
-5.90	-56.569417	-55.926727	-57.112451
-5.80	-56.728514	-55.865854	-56.672820
-5.70	-56.526712	-55.970473	-56.088956
-5.60	-56.836622	-56.122912	-55.904666
-5.50	-56.895338	-56.204585	-56.026480
-5.40	-57.028879	-55.988348	-56.375982
-5.30	-56.870159	-55.983465	-56.824835
-5.20	-56.256861	-56.150328	-56.956081
-5.10	-55.945196	-56.532279	-56.696985
-5.00	-55.844821	-57.068359	-56.589643
-4.90	-56.352048	-57.389554	-56.373388
-4.80	-56.883391	-57.509101	-56.370631
-4.70	-56.896571	-57.481943	-56.145747
-4.60	-56.745000	-57.343212	-55.379375
-4.50	-56.738750	-56.996430	-54.826368
-4.40	-56.890866	-56.413291	-54.261482
-4.30	-57.116112	-56.210580	-54.146274
-4.20	-57.459596	-56.070173	-54.508844
-4.10	-57.650132	-56.370694	-55.014177
-4.00	-57.950208	-56.554291	-55.761693
-3.90	-58.141621	-56.288937	-56.178065
-3.80	-58.094025	-55.738860	-56.643625
-3.70	-58.006427	-55.640582	-56.813251
-3.60	-57.960298	-55.896845	-57.066998
-3.50	-58.073623	-56.663621	-56.960569
-3.40	-58.254670	-57.308688	-56.372743
-3.30	-58.305358	-57.655271	-56.118939
-3.20	-58.298152	-57.774324	-55.724866
-3.10	-58.236083	-57.761053	-56.020671
-3.00	-58.107752	-57.674226	-56.240050
-2.90	-57.965380	-57.510128	-56.636270
-2.80	-57.817854	-57.230575	-56.848941
-2.70	-57.693806	-56.691942	-56.609970
-2.60	-57.542625	-55.820298	-55.818117
-2.50	-57.303652	-55.446384	-55.811298
-2.40	-56.927121	-55.322836	-56.004522
-2.30	-56.412292	-55.745108	-57.018092
-2.20	-55.946834	-55.903665	-57.688403
-2.10	-55.630173	-56.154725	-57.901089
-2.00	-55.216035	-56.299246	-58.043527
-1.90	-55.466640	-56.806107	-58.098278
-1.80	-55.396062	-57.140568	-58.293539
-1.70	-55.817300	-57.195457	-58.395710
-1.60	-56.044840	-56.863414	-58.332778
-1.50	-56.212658	-56.341224	-58.156411
-1.40	-56.394708	-56.129561	-57.842692
-1.30	-56.555792	-55.831982	-57.238501
-1.20	-56.853940	-56.081410	-56.624071
-1.10	-57.066000	-56.460339	-56.077012
-1.00	-57.186293	-56.932397	-55.874729
-0.90	-57.179052	-57.436676	-55.849807
-0.80	-57.182588	-57.687642	-56.191091
-0.70	-57.264113	-57.535532	-56.452041
-0.60	-57.415290	-57.500002	-56.814555
-0.50	-57.410506	-57.475939	-56.903236
-0.40	-57.149347	-57.643545	-56.475066
-0.30	-56.572451	-57.754427	-55.961837
-0.20	-56.173029	-57.562899	-55.528235
-0.10	-55.979010	-57.136352	-55.405473
0.00	-56.108136	-56.550550	-55.721916
0.10	-56.390348	-56.055994	-56.295977
0.20	-56.290011	-55.914824	-56.797396
0.30	-55.765670	-56.313865	-57.242829
0.40	-55.370041	-56.830338	-57.613488
0.50	-55.220291	-57.448492	-57.816467
0.60	-55.310143	-57.732126	-58.104341
0.70	-55.713342	-57.528680	-58.174220
0.80	-55.697244	-57.518696	-58.036962
0.90	-55.705294	-57.416532	-57.595075
1.00	-55.730711	-57.492109	-57.430345
1.10	-55.733340	-57.388070	-57.216127
1.20	-56.153452	-56.885682	-57.237950
1.30	-56.241630	-56.758604	-57.010917
1.40	-56.257706	-56.611056	-56.495826
1.50	-56.178100	-56.838540	-55.808814
1.60	-56.300491	-56.815834	-55.719140
1.70	-56.580789	-56.748676	-56.035893
1.80	-56.997966	-56.893863	-56.785456
1.90	-57.265894	-57.164550	-57.462628
2.00	-57.407881	-57.605643	-57.699039
2.10	-57.388260	-57.848395	-57.407567
2.20	-57.241143	-57.901399	-57.060499
2.30	-57.052766	-57.753776	-56.245382
2.40	-56.753119	-57.465683	-55.958635
2.50	-56.202267	-56.830711	-55.897033
2.60	-55.205192	-56.104903	-56.222383
2.70	-54.520261	-55.519983	-56.903869
2.80	-54.026711	-55.358753	-57.245001
2.90	-54.051334	-55.759676	-57.688647
3.00	-54.691613	-56.434859	-57.627656
3.10	-55.386839	-56.899287	-57.813366
3.20	-56.199457	-56.773746	-57.764312
3.30	-56.582409	-56.460968	-58.088419
3.40	-56.656045	-56.148354	-58.373894
3.50	-56.573885	-56.283914	-58.789462
3.60	-56.759477	-56.714712	-59.020065
3.70	-56.966574	-57.315621	-59.086177
3.80	-57.058255	-57.777870	-58.992641
3.90	-56.733003	-57.929146	-58.853565
4.00	-56.496799	-57.829170	-58.608532
4.10	-56.539195	-57.346120	-58.189512
4.20	-56.838724	-56.949781	-57.629569
4.30	-57.507194	-56.696696	-57.150833
4.40	-57.935484	-56.770994	-57.013473
4.50	-58.391980	-56.875816	-57.039604
4.60	-58.473982	-57.060835	-57.332996
4.70	-58.534362	-57.142712	-56.808950
4.80	-58.612699	-57.321497	-56.420192
4.90	-58.842413	-57.183407	-55.709118
5.00	-59.015552	-56.552479	-54.737808
5.10	-59.013005	-55.148442	-52.969996
5.20	-58.815170	-52.554038	-50.854557
5.30	-58.191846	-49.544051	-48.266097
5.40	-57.238029	-45.629023	-43.792265
5.50	-55.913059	-42.054283	-35.919350
5.60	-53.873724	-37.301493	-29.186152
5.70	-51.177974	-32.089500	-25.151855
5.80	-47.297611	-29.228742	-28.523746
5.90	-41.782343	-30.847763	-35.830994
6.00	-34.249522	-35.708883	-45.275766
6.10	-29.157154	-42.403597	-53.225789
6.20	-26.812742	-48.729891	-58.328847
6.30	-28.590138	-53.831594	-60.808223
6.40	-34.504240	-57.146144	-61.743364
6.50	-41.322199	-59.267845	-62.228520
6.60	-48.534168	-60.539205	-62.392367
6.70	-54.089266	-61.223081	-62.334843
6.80	-57.664321	-61.542539	-62.222997
6.90	-59.243682	-61.717911	-62.088625
7.00	-59.784750	-61.808723	-61.853685
7.10	-59.933719	-61.881190	-61.519615
7.20	-59.846290	-61.911892	-61.141417
7.30	-59.780154	-61.856917	-60.793608
7.40	-59.810126	-61.755069	-60.269603
7.50	-59.828924	-61.480140	-59.682259
7.60	-59.819495	-61.151172	-58.827915
7.70	-59.896540	-60.863440	-57.873884
7.80	-59.991361	-60.285620	-56.875280
7.90	-60.106584	-59.487016	-55.682873
8.00	-60.123862	-58.684173	-54.483723
8.10	-60.071181	-57.896973	-53.429342
8.20	-59.967708	-57.039070	-52.128165
8.30	-59.837751	-56.179777	-51.000558
8.40	-59.611112	-55.131647	-50.467610
8.50	-59.149700	-53.964823	-49.974075
8.60	-58.607496	-52.200337	-48.928805
8.70	-57.895454	-50.366141	-48.088714
8.80	-57.159426	-48.506966	-47.384883
8.90	-56.183699	-47.285938	-47.002437
9.00	-55.069626	-46.508886	-46.626819
9.10	-53.711808	-45.782372	-46.737176
9.20	-52.372682	-44.953098	-46.049828
9.30	-50.767747	-44.856163	-46.406405
9.40	-49.304281	-44.263692	-46.877081
9.50	-47.490794	-44.793129	-47.436344
9.60	-45.623006	-45.615584	-48.318402
9.70	-45.222994	-46.648547	-49.071553
9.80	-45.295717	-48.104776	-49.847911
9.90	-45.881458	-49.077543	-50.889648
10.00	-46.043109	-49.060038	-51.826008
10.10	-46.023446	-49.702489	-52.044904
10.20	-45.644840	-49.880043	-52.094130
10.30	-46.077706	-50.725432	-51.513815
10.40	-46.697630	-51.518158	-51.350772
10.50	-47.468349	-52.117498	-50.916079
10.60	-48.922495	-52.786435	-51.105662
10.70	-49.954272	-53.408234	-51.597629
10.80	-51.468353	-53.589298	-52.290664
10.90	-52.402660	-53.689096	-52.677996
11.00	-52.758515	-53.352178	-52.054447
11.10	-53.019860	-53.076870	-50.751727
11.20	-53.218792	-52.587304	-49.884594
11.30	-53.102521	-52.203025	-49.294275
11.40	-52.620006	-51.872951	-49.475589
11.50	-51.666455	-51.725283	-49.687553
11.60	-51.235722	-51.458618	-49.246091
11.70	-50.655459	-50.951480	-49.217575
11.80	-50.791060	-49.959823	-49.201183
11.90	-50.874701	-49.044422	-49.774164
12.00	-51.048509	-47.484434	-49.609136
12.10	-51.051318	-47.000887	-48.864236
12.20	-50.631409	-46.724907	-48.443627
12.30	-50.509373	-47.512222	-48.336039
12.40	-49.842765	-48.193185	-48.572516
12.50	-49.109191	-48.727350	-48.427741
12.60	-48.098665	-48.562895	-47.394985
12.70	-47.372504	-48.109439	-46.870800
12.80	-46.209605	-48.309113	-46.341872
12.90	-46.165486	-48.400767	-47.062668
13.00	-45.994116	-48.623578	-47.396078
13.10	-46.023314	-48.431362	-48.012988
13.20	-46.620386	-47.616323	-48.459176
13.30	-47.167338	-47.535697	-49.442079
13.40	-48.722939	-47.831337	-50.427558
13.50	-50.521405	-48.317609	-51.643570
13.60	-51.952291	-49.104145	-52.146245
13.70	-52.916578	-49.878159	-51.808932
13.80	-53.122653	-50.731124	-51.056003
13.90	-53.203351	-51.209370	-49.983281
14.00	-53.093504	-51.898936	-49.036143
14.10	-52.547095	-52.236617	-48.403196
14.20	-52.210002	-52.478866	-47.415702
14.30	-51.759014	-52.649633	-47.104565
14.40	-50.963456	-52.507232	-46.781442
14.50	-49.890899	-52.300924	-46.981340
14.60	-49.384226	-51.476879	-48.004451
14.70	-48.789584	-50.950101	-49.324968
14.80	-48.959630	-50.239510	-50.996011
14.90	-49.101782	-49.813963	-52.322229
15.00	-49.199003	-49.548875	-52.916898
15.10	-49.325548	-49.840542	-52.656630
15.20	-49.384130	-50.147584	-52.112036
15.30	-49.579126	-50.059436	-51.028560
15.40	-50.294345	-49.400204	-50.251321
15.50	-50.669636	-48.129630	-49.562776
15.60	-50.902983	-47.195071	-48.815586
15.70	-50.116869	-46.022743	-47.959086
15.80	-49.430557	-45.689787	-47.259634
15.90	-48.987931	-45.188966	-46.297139
16.00	-49.408947	-44.869123	-46.554468
16.10	-50.216003	-44.787410	-47.209888
16.20	-50.686378	-45.293260	-48.087287
16.30	-51.404440	-46.544605	-48.947784
16.40	-51.259959	-47.948162	-49.112594
16.50	-51.541511	-49.414392	-49.345165
16.60	-50.926619	-50.144161	-49.768591
16.70	-49.993641	-49.886335	-50.537937
16.80	-49.724891	-49.348938	-50.993422
16.90	-49.669999	-48.985412	-51.444021
17.00	-49.669260	-49.370195	-51.723230
17.10	-49.625254	-50.100832	-51.671846
17.20	-48.400517	-51.486263	-51.445111
17.30	-48.033876	-52.237358	-51.439681
17.40	-46.835394	-53.385574	-51.365250
17.50	-46.862604	-53.700007	-51.091426
17.60	-47.002757	-53.801307	-51.197122
17.70	-47.750054	-53.824368	-51.121501
17.80	-48.923581	-53.513197	-51.050334
17.90	-49.651149	-52.991747	-50.801770
18.00	-50.472751	-52.310191	-49.812440
18.10	-50.645236	-51.649603	-49.042762
18.20	-50.635861	-51.351742	-47.771287
18.30	-50.745851	-50.936546	-47.204391
18.40	-50.996729	-50.741162	-46.556636
18.50	-50.934846	-49.899212	-46.625717
18.60	-51.765825	-49.577740	-47.050881
18.70	-51.982299	-49.114462	-47.459768
18.80	-52.530314	-48.387275	-47.435781
18.90	-52.567382	-47.840657	-47.401739
19.00	-52.378521	-47.407576	-48.214009
19.10	-51.943115	-47.212094	-49.230509
19.20	-51.277806	-48.163308	-50.547980
19.30	-50.169116	-48.681427	-51.019903
19.40	-49.717681	-48.892339	-50.418812
19.50	-49.368829	-48.671435	-48.886953
19.60	-49.245061	-48.308760	-48.174509
19.70	-49.272712	-48.479123	-48.168366
19.80	-48.960716	-49.130092	-48.909125
19.90	-49.156857	-50.041225	-50.282775
20.00	-48.960762	-51.356339	-50.917765
20.10	-48.600305	-52.685143	-51.487377
20.20	-48.116778	-53.370169	-51.717152
20.30	-48.538110	-53.095696	-51.366983
20.40	-49.562932	-52.570886	-50.758704
20.50	-50.571939	-51.780047	-50.736975
20.60	-50.886413	-51.186768	-50.921691
20.70	-50.450360	-50.680228	-51.323232
20.80	-49.935695	-50.008357	-51.172880
20.90	-49.179566	-49.852445	-50.900734
21.00	-49.062154	-49.723773	-50.228462
21.10	-48.815564	-49.530846	-49.614681
21.20	-49.000466	-48.673519	-48.987772
21.30	-48.940928	-47.973434	-48.370872
21.40	-48.985932	-46.990733	-48.248292
21.50	-49.040785	-47.043370	-48.170147
21.60	-49.351427	-46.694677	-48.711259
21.70	-50.368677	-47.323677	-49.464469
21.80	-51.364269	-47.884860	-50.304506
21.90	-52.277910	-48.348169	-51.366214
22.00	-52.562523	-48.770473	-51.966758
22.10	-52.214292	-48.396559	-52.071303
22.20	-50.866882	-48.603900	-52.281821
22.30	-49.931919	-48.682762	-52.413272
22.40	-48.952733	-48.997629	-52.738422
22.50	-48.441410	-49.068219	-52.686492
22.60	-47.974639	-49.320456	-51.953089
22.70	-47.479411	-49.469727	-50.844204
22.80	-47.288493	-50.259214	-49.465172
22.90	-48.453318	-51.181916	-48.495672
23.00	-49.770698	-51.818243	-48.144109
23.10	-51.647301	-52.289188	-47.587609
23.20	-52.794270	-52.485815	-47.524744
23.30	-53.355462	-52.273550	-47.674344
23.40	-52.950732	-52.215696	-48.553053
23.50	-52.389204	-51.844305	-49.644701
23.60	-51.898232	-51.031763	-50.502773
23.70	-51.825624	-50.074433	-50.833418
23.80	-51.857359	-49.521647	-50.857588
23.90	-52.047665	-49.393453	-50.739870
24.00	-51.560699	-49.748728	-50.052505
24.10	-50.817910	-50.362727	-49.548782
24.20	-50.249755	-50.728967	-49.187725
24.30	-50.365577	-50.821478	-48.808298
24.40	-50.594809	-50.349922	-49.026483
24.50	-50.261104	-49.725113	-49.230312
24.60	-49.881078	-49.355418	-50.006074