# TStellate3_CS Optimisation
# 20130904+11:15:31
 
#param.w.x[lsr][ts] = 0.0017991	[1e-07,0.3]
#param.w.x[hsr][ts] = 0.0004908	[1e-07,0.3]
#param.w.x[ds][ts] = 7.3372e-05	[1e-07,0.3]
#param.w.x[tv][ts] = 0.00017319	[1e-07,0.3]
#param.w.x[glg][ts] = 8.9534e-06	[1e-07,0.3]
# final error=71.192667
# Threshold level 20 
# Threshold rate 0 
# TS exemplar RMP -60.9
# TS exemplar CF 9100
# CV RMS errors:	7.32	7.329	7.873	
# CV Penalties :	0	0	0	10.97	0	0.3225	0.7094	3.722	0	0	0	0	0	0	5.171	2.208	0	0	0	12.13	0	0	5.179	3.329	
# IV RMS errors:	1.691	2.219	1.011	
# IV Penalties :	
# Final Error  71.1927   71.1927
# Time	 IV @spl=20 (mV)	 IV @spl=30 (mV)	 IV @spl=40 (mV)
-50.00	-65.000000	-65.000000	-65.000000
-49.90	-64.766934	-64.766934	-64.766934
-49.80	-64.545736	-64.545736	-64.545736
-49.70	-64.335646	-64.335646	-64.335646
-49.60	-64.136115	-64.136115	-64.136115
-49.50	-63.946649	-63.946649	-63.946649
-49.40	-63.766647	-63.766647	-63.766647
-49.30	-63.595652	-63.595652	-63.595652
-49.20	-63.433250	-63.433250	-63.433250
-49.10	-63.279047	-63.279047	-63.279047
-49.00	-63.132590	-63.132590	-63.132590
-48.90	-62.993458	-62.993458	-62.993458
-48.80	-62.861308	-62.861308	-62.861308
-48.70	-62.735827	-62.735827	-62.735827
-48.60	-62.616717	-62.616717	-62.616717
-48.50	-62.503695	-62.503695	-62.503695
-48.40	-62.396372	-62.396372	-62.396372
-48.30	-62.294460	-62.294460	-62.294460
-48.20	-62.197712	-62.197712	-62.197712
-48.10	-62.105895	-62.105895	-62.105895
-48.00	-62.018788	-62.018788	-62.018788
-47.90	-61.936179	-61.936179	-61.936179
-47.80	-61.857864	-61.857864	-61.857877
-47.70	-61.783649	-61.783649	-61.783687
-47.60	-61.713277	-61.713277	-61.713348
-47.50	-61.646526	-61.646526	-61.641180
-47.40	-61.577774	-61.583227	-61.574047
-47.30	-61.513890	-61.517772	-61.511375
-47.20	-61.448866	-61.457030	-61.447269
-47.10	-61.389268	-61.400440	-61.388374
-47.00	-61.328936	-61.347563	-61.328541
-46.90	-61.274261	-61.281765	-61.263361
-46.80	-61.208104	-61.218311	-61.184311
-46.70	-61.150734	-61.151905	-61.101597
-46.60	-61.095010	-61.073424	-61.011848
-46.50	-61.030301	-61.003189	-60.917876
-46.40	-60.959896	-60.934264	-60.838086
-46.30	-60.891445	-60.861666	-60.753291
-46.20	-60.825204	-60.767557	-60.676446
-46.10	-60.756005	-60.673645	-60.579706
-46.00	-60.690865	-60.591221	-60.495940
-45.90	-60.629268	-60.517666	-60.406568
-45.80	-60.560015	-60.440716	-60.324777
-45.70	-60.459533	-60.348883	-60.243761
-45.60	-60.348033	-60.231273	-60.134441
-45.50	-60.256331	-60.118687	-60.025324
-45.40	-60.147536	-60.019605	-59.922353
-45.30	-60.017084	-59.913949	-59.814606
-45.20	-59.903986	-59.813759	-59.714745
-45.10	-59.815365	-59.700869	-59.612158
-45.00	-59.734550	-59.570668	-59.529170
-44.90	-59.644837	-59.448035	-59.445341
-44.80	-59.528376	-59.303869	-59.350561
-44.70	-59.404664	-59.087162	-59.244107
-44.60	-59.266153	-58.674367	-59.151335
-44.50	-59.149836	-58.589899	-59.068738
-44.40	-59.050711	-58.528074	-58.999067
-44.30	-58.954296	-58.765357	-58.928910
-44.20	-58.842555	-58.959916	-58.843646
-44.10	-58.734137	-59.082856	-58.749295
-44.00	-58.623715	-59.100831	-58.649137
-43.90	-58.517628	-59.037156	-58.534986
-43.80	-58.377415	-58.966181	-58.409586
-43.70	-58.250637	-58.860460	-58.293445
-43.60	-58.143998	-58.762289	-58.148583
-43.50	-58.030441	-58.640146	-58.031390
-43.40	-57.927003	-58.508125	-57.934441
-43.30	-57.845914	-58.409511	-57.863657
-43.20	-57.795820	-58.324751	-57.771796
-43.10	-57.722275	-58.254983	-57.682202
-43.00	-57.658714	-58.175601	-57.584291
-42.90	-57.576611	-58.069039	-57.495786
-42.80	-57.471866	-57.973500	-57.419030
-42.70	-57.279265	-57.875960	-57.368356
-42.60	-56.909230	-57.746278	-57.316377
-42.50	-56.869084	-57.638480	-57.263285
-42.40	-56.843346	-57.535720	-57.213301
-42.30	-57.118116	-57.436113	-57.172316
-42.20	-57.317099	-57.288372	-57.133923
-42.10	-57.434247	-56.955590	-57.099247
-42.00	-57.481883	-56.792393	-57.085947
-41.90	-57.494786	-56.726324	-57.071995
-41.80	-57.480550	-56.921194	-57.053285
-41.70	-57.451140	-57.164789	-57.026978
-41.60	-57.406009	-57.327080	-57.005049
-41.50	-57.338495	-57.355423	-56.991500
-41.40	-57.282604	-57.299919	-56.982768
-41.30	-57.215044	-57.174799	-56.983927
-41.20	-57.146059	-56.900308	-56.982218
-41.10	-57.092264	-56.721364	-56.966989
-41.00	-57.030529	-56.662700	-56.955716
-40.90	-56.967606	-56.828102	-56.919101
-40.80	-56.902817	-56.977493	-56.860337
-40.70	-56.818380	-56.978000	-56.787905
-40.60	-56.717232	-56.745731	-56.682803
-40.50	-56.617677	-56.756271	-56.530757
-40.40	-56.484458	-56.754457	-56.289080
-40.30	-56.239686	-57.080238	-56.239565
-40.20	-55.933534	-57.281774	-56.211083
-40.10	-55.853746	-57.434912	-56.430823
-40.00	-55.877891	-57.502828	-56.624355
-39.90	-55.996664	-57.529217	-56.754291
-39.80	-55.852281	-57.507916	-56.812269
-39.70	-55.933781	-57.464070	-56.853946
-39.60	-55.949036	-57.436376	-56.884652
-39.50	-56.222897	-57.387596	-56.895565
-39.40	-56.279840	-57.335759	-56.910477
-39.30	-56.290172	-57.285569	-56.915129
-39.20	-56.340866	-57.199903	-56.915200
-39.10	-56.556412	-57.020521	-56.891575
-39.00	-56.772419	-56.801899	-56.861379
-38.90	-56.778426	-56.773751	-56.844917
-38.80	-56.542904	-56.887658	-56.827470
-38.70	-56.550681	-57.169678	-56.813694
-38.60	-56.560581	-57.375147	-56.813675
-38.50	-56.853931	-57.496527	-56.807613
-38.40	-57.038053	-57.542851	-56.750650
-38.30	-57.138891	-57.573268	-56.717790
-38.20	-57.165454	-57.583282	-56.676839
-38.10	-57.167978	-57.618138	-56.635762
-38.00	-57.113640	-57.636495	-56.585137
-37.90	-57.012400	-57.641735	-56.554605
-37.80	-56.901907	-57.623230	-56.509875
-37.70	-56.698616	-57.575482	-56.435484
-37.60	-56.446191	-57.519147	-56.362226
-37.50	-56.431835	-57.500409	-56.255456
-37.40	-56.564816	-57.487269	-56.086511
-37.30	-56.859338	-57.466681	-55.799173
-37.20	-57.092295	-57.445848	-55.223132
-37.10	-57.211112	-57.402271	-54.830486
-37.00	-57.274538	-57.352013	-54.463757
-36.90	-57.301630	-57.302473	-54.785034
-36.80	-57.298216	-57.255912	-55.259078
-36.70	-57.297397	-57.204722	-55.903675
-36.60	-57.299120	-57.150348	-56.338889
-36.50	-57.285009	-57.033497	-56.584780
-36.40	-57.267574	-56.752911	-56.679547
-36.30	-57.259169	-56.535493	-56.670729
-36.20	-57.244564	-56.538506	-56.516119
-36.10	-57.185675	-56.676874	-56.449039
-36.00	-57.019632	-56.899429	-56.431751
-35.90	-56.849384	-57.057892	-56.532956
-35.80	-56.869046	-57.134543	-56.442764
-35.70	-57.051034	-57.153117	-56.628122
-35.60	-57.344712	-57.154807	-56.754205
-35.50	-57.524628	-57.149298	-57.144101
-35.40	-57.621100	-57.103008	-57.443766
-35.30	-57.643149	-57.056278	-57.631545
-35.20	-57.626106	-56.991869	-57.730954
-35.10	-57.612713	-56.914279	-57.773395
-35.00	-57.560813	-56.820903	-57.776440
-34.90	-57.524978	-56.690772	-57.765445
-34.80	-57.490805	-56.402838	-57.755824
-34.70	-57.487823	-56.230446	-57.698111
-34.60	-57.497034	-56.162612	-57.676632
-34.50	-57.501805	-56.364975	-57.681389
-34.40	-57.497581	-56.593020	-57.664450
-34.30	-57.517347	-56.738196	-57.642495
-34.20	-57.519679	-56.774674	-57.631734
-34.10	-57.503037	-56.779532	-57.624422
-34.00	-57.479004	-56.776454	-57.619102
-33.90	-57.460008	-56.752455	-57.593655
-33.80	-57.429597	-56.718778	-57.584173
-33.70	-57.410445	-56.613601	-57.577082
-33.60	-57.415506	-56.373606	-57.571921
-33.50	-57.418265	-56.236325	-57.563029
-33.40	-57.433424	-56.215442	-57.541437
-33.30	-57.399806	-56.398059	-57.546117
-33.20	-57.359338	-56.596998	-57.535580
-33.10	-57.327211	-56.697334	-57.532688
-33.00	-57.286242	-56.650144	-57.516470
-32.90	-57.226372	-56.359556	-57.499163
-32.80	-57.144760	-56.336041	-57.490994
-32.70	-57.060752	-56.223048	-57.469479
-32.60	-56.988237	-56.259485	-57.424707
-32.50	-56.907630	-56.476496	-57.386335
-32.40	-56.802475	-56.626216	-57.363043
-32.30	-56.712698	-56.961749	-57.332226
-32.20	-56.633647	-57.235966	-57.319958
-32.10	-56.549311	-57.383332	-57.310910
-32.00	-56.410905	-57.417546	-57.298005
-31.90	-56.207419	-57.409147	-57.258290
-31.80	-55.719609	-57.379983	-57.224903
-31.70	-55.387337	-57.319341	-57.210548
-31.60	-55.350198	-57.265981	-57.185396
-31.50	-55.611633	-57.206785	-57.152330
-31.40	-56.128227	-57.120594	-57.123929
-31.30	-56.505681	-57.062897	-57.114082
-31.20	-56.721446	-57.009587	-57.088129
-31.10	-56.834703	-56.965821	-57.085209
-31.00	-56.882825	-56.898283	-57.063298
-30.90	-56.882985	-56.807757	-57.055257
-30.80	-56.854771	-56.694719	-57.050178
-30.70	-56.806108	-56.601708	-57.058386
-30.60	-56.681463	-56.518294	-57.056759
-30.50	-56.345890	-56.438650	-57.053148
-30.40	-56.314008	-56.380051	-57.036626
-30.30	-56.291428	-56.317928	-57.021825
-30.20	-56.556628	-56.233797	-57.037526
-30.10	-56.782939	-56.135359	-57.049295
-30.00	-56.919919	-56.013607	-57.064229
-29.90	-56.976375	-55.801017	-57.076597
-29.80	-56.957896	-55.333032	-57.082601
-29.70	-56.842633	-55.012267	-57.054502
-29.60	-56.546212	-54.929211	-57.049526
-29.50	-56.518714	-55.079785	-57.048195
-29.40	-56.493206	-55.416790	-57.035147
-29.30	-56.781965	-55.824520	-57.021821
-29.20	-57.012061	-56.119222	-57.004220
-29.10	-57.154174	-56.511909	-56.977058
-29.00	-57.221721	-56.766461	-56.958074
-28.90	-57.257769	-56.889837	-56.919496
-28.80	-57.260591	-56.938349	-56.867322
-28.70	-57.216100	-56.963977	-56.826806
-28.60	-57.142967	-56.968850	-56.769709
-28.50	-57.023649	-56.926099	-56.699504
-28.40	-56.831531	-56.867852	-56.604474
-28.30	-56.566032	-56.757783	-56.385815
-28.20	-56.556389	-56.608316	-56.249885
-28.10	-56.588149	-56.332453	-56.240616
-28.00	-56.892054	-56.187395	-56.424712
-27.90	-57.054942	-56.118402	-56.672653
-27.80	-57.141376	-56.250529	-56.797019
-27.70	-57.141410	-56.372470	-56.830613
-27.60	-57.117011	-56.328186	-56.816869
-27.50	-57.063170	-56.309985	-56.763795
-27.40	-57.018741	-56.355985	-56.637404
-27.30	-56.955056	-56.552689	-56.398440
-27.20	-56.881620	-56.817573	-56.065778
-27.10	-56.767475	-56.987881	-56.015210
-27.00	-56.639694	-57.091275	-55.993326
-26.90	-56.420511	-57.153018	-56.297831
-26.80	-56.110534	-57.171646	-56.476893
-26.70	-56.002847	-57.157218	-56.584038
-26.60	-55.917227	-57.141631	-56.636581
-26.50	-55.832796	-57.118164	-56.648934
-26.40	-55.987822	-57.094413	-56.656894
-26.30	-56.070875	-57.045156	-56.658948
-26.20	-56.394906	-56.933417	-56.641392
-26.10	-56.618555	-56.737279	-56.583575
-26.00	-56.739279	-56.563998	-56.534607
-25.90	-56.768934	-56.526548	-56.485815
-25.80	-56.755033	-56.581237	-56.438273
-25.70	-56.743912	-56.767379	-56.381224
-25.60	-56.716772	-56.877138	-56.328791
-25.50	-56.671360	-56.935879	-56.296117
-25.40	-56.612606	-56.959499	-56.256213
-25.30	-56.567725	-56.963761	-56.188679
-25.20	-56.517520	-56.947992	-56.062775
-25.10	-56.467264	-56.945105	-55.796718
-25.00	-56.393621	-56.938166	-55.684162
-24.90	-56.319409	-56.929378	-55.552025
-24.80	-56.265911	-56.909839	-55.467814
-24.70	-56.205540	-56.895732	-55.676902
-24.60	-56.149795	-56.875709	-55.825339
-24.50	-56.086479	-56.880344	-56.197232
-24.40	-55.985985	-56.867140	-56.486040
-24.30	-55.780991	-56.855490	-56.651481
-24.20	-55.586182	-56.835129	-56.689938
-24.10	-55.510297	-56.817521	-56.671827
-24.00	-55.524289	-56.789200	-56.580062
-23.90	-55.598764	-56.748126	-56.372258
-23.80	-55.812007	-56.707499	-56.221242
-23.70	-56.042021	-56.625588	-56.071376
-23.60	-56.414810	-56.495920	-55.901625
-23.50	-56.641321	-56.271586	-56.118207
-23.40	-56.683065	-56.095020	-56.248733
-23.30	-56.472285	-56.070979	-56.628149
-23.20	-56.508154	-56.184494	-56.914257
-23.10	-56.527369	-56.368762	-57.091898
-23.00	-56.824190	-56.455786	-57.158906
-22.90	-57.074613	-56.405379	-57.158513
-22.80	-57.234193	-56.180464	-57.072243
-22.70	-57.304534	-56.203235	-56.918112
-22.60	-57.314548	-56.242969	-56.691444
-22.50	-57.251135	-56.595817	-56.678468
-22.40	-57.068779	-56.822960	-56.699231
-22.30	-56.977389	-56.959852	-56.922831
-22.20	-56.988634	-57.027303	-57.087868
-22.10	-57.197427	-57.057123	-57.188206
-22.00	-57.429938	-57.037968	-57.229990
-21.90	-57.576468	-57.028263	-57.240998
-21.80	-57.673357	-57.002938	-57.239138
-21.70	-57.740044	-56.989354	-57.225188
-21.60	-57.776286	-56.971508	-57.197394
-21.50	-57.769579	-56.959532	-57.145656
-21.40	-57.734623	-56.924856	-57.112586
-21.30	-57.705193	-56.903675	-57.072029
-21.20	-57.679402	-56.898104	-57.034577
-21.10	-57.651451	-56.882517	-56.987266
-21.00	-57.627069	-56.851522	-56.951224
-20.90	-57.605635	-56.822388	-56.902749
-20.80	-57.590667	-56.775837	-56.832012
-20.70	-57.554776	-56.735699	-56.741215
-20.60	-57.523623	-56.705227	-56.636202
-20.50	-57.488595	-56.685740	-56.440391
-20.40	-57.459975	-56.665548	-56.093878
-20.30	-57.422673	-56.622315	-55.998243
-20.20	-57.382510	-56.540862	-55.883444
-20.10	-57.349271	-56.462058	-56.053444
-20.00	-57.311707	-56.364974	-56.020620
-19.90	-57.258856	-56.192407	-55.684364
-19.80	-57.177304	-55.919073	-55.456735
-19.70	-56.990693	-55.574192	-55.349096
-19.60	-56.545426	-55.293957	-55.518972
-19.50	-56.162640	-55.323386	-56.025918
-19.40	-56.153142	-55.369531	-56.379735
-19.30	-56.417226	-55.703702	-56.907388
-19.20	-56.981570	-55.976058	-57.216575
-19.10	-57.363437	-56.347323	-57.407567
-19.00	-57.595153	-56.665329	-57.527816
-18.90	-57.688312	-56.830771	-57.587365
-18.80	-57.732632	-56.830606	-57.610419
-18.70	-57.735719	-56.603556	-57.608499
-18.60	-57.723481	-56.473790	-57.595122
-18.50	-57.706758	-56.193805	-57.544392
-18.40	-57.685951	-56.407777	-57.459203
-18.30	-57.634987	-56.657315	-57.267144
-18.20	-57.533971	-57.111709	-57.055597
-18.10	-57.270769	-57.467805	-57.057403
-18.00	-57.139394	-57.683105	-57.159747
-17.90	-57.136318	-57.791930	-57.390932
-17.80	-57.334831	-57.838697	-57.560208
-17.70	-57.591699	-57.841675	-57.631250
-17.60	-57.759392	-57.813604	-57.625743
-17.50	-57.828293	-57.793442	-57.584348
-17.40	-57.856082	-57.775926	-57.483403
-17.30	-57.849670	-57.739788	-57.386149
-17.20	-57.832121	-57.681834	-57.228032
-17.10	-57.819308	-57.629390	-56.944470
-17.00	-57.797589	-57.556247	-56.620863
-16.90	-57.778535	-57.493095	-56.328822
-16.80	-57.765002	-57.454711	-56.375259
-16.70	-57.728872	-57.427435	-56.617007
-16.60	-57.690629	-57.380322	-57.007365
-16.50	-57.620968	-57.305471	-57.289818
-16.40	-57.557828	-57.230759	-57.432211
-16.30	-57.493501	-57.078895	-57.496319
-16.20	-57.399389	-56.758614	-57.465887
-16.10	-57.276668	-56.732784	-57.381328
-16.00	-57.035194	-56.707350	-57.176946
-15.90	-56.865335	-56.997360	-56.796103
-15.80	-56.845160	-57.226502	-56.476474
-15.70	-56.974017	-57.367315	-56.415310
-15.60	-57.158570	-57.418533	-56.731776
-15.50	-57.246307	-57.442658	-57.190411
-15.40	-57.203156	-57.416305	-57.580739
-15.30	-56.933089	-57.381299	-57.821798
-15.20	-56.772722	-57.347204	-57.923078
-15.10	-56.683741	-57.328874	-57.962215
-15.00	-56.810961	-57.303109	-57.972968
-14.90	-56.764558	-57.278910	-57.913816
-14.80	-56.815898	-57.220182	-57.860506
-14.70	-56.816098	-57.165220	-57.790645
-14.60	-57.025729	-57.138290	-57.707358
-14.50	-57.249275	-57.102533	-57.628943
-14.40	-57.385086	-57.086248	-57.569608
-14.30	-57.454144	-57.089203	-57.493277
-14.20	-57.441098	-57.090674	-57.389885
-14.10	-57.394993	-57.091923	-57.239520
-14.00	-57.324801	-57.103669	-56.944921
-13.90	-57.219013	-57.099200	-56.620125
-13.80	-57.014302	-57.112986	-56.485357
-13.70	-56.492301	-57.135264	-56.289538
-13.60	-56.187125	-57.152711	-56.450584
-13.50	-56.154432	-57.126683	-56.612479
-13.40	-56.505041	-57.108661	-56.914609
-13.30	-57.069495	-57.097564	-57.210577
-13.20	-57.476475	-57.069711	-57.392166
-13.10	-57.678532	-57.023107	-57.450867
-13.00	-57.752552	-56.989693	-57.451909
-12.90	-57.778438	-56.950141	-57.411543
-12.80	-57.779841	-56.924704	-57.383409
-12.70	-57.757927	-56.909440	-57.344597
-12.60	-57.730403	-56.892495	-57.287753
-12.50	-57.697743	-56.878163	-57.221579
-12.40	-57.645403	-56.841805	-57.097035
-12.30	-57.588668	-56.805218	-56.907444
-12.20	-57.509868	-56.802794	-56.552381
-12.10	-57.402891	-56.820997	-56.376947
-12.00	-57.159369	-56.845115	-56.220355
-11.90	-56.920906	-56.867735	-56.228803
-11.80	-56.851244	-56.870780	-56.227534
-11.70	-56.927518	-56.884969	-56.304757
-11.60	-57.100053	-56.896744	-56.442406
-11.50	-57.109507	-56.921029	-56.704930
-11.40	-56.900171	-56.949865	-56.868992
-11.30	-56.906881	-56.996686	-56.952434
-11.20	-56.885159	-57.017338	-56.948434
-11.10	-57.118509	-57.023970	-56.851065
-11.00	-57.302041	-57.017223	-56.539496
-10.90	-57.405600	-56.999505	-56.443826
-10.80	-57.450486	-56.973268	-56.363676
-10.70	-57.448533	-56.924832	-56.429682
-10.60	-57.403717	-56.886916	-56.414806
-10.50	-57.371866	-56.860052	-56.584964
-10.40	-57.340642	-56.824280	-56.673036
-10.30	-57.306464	-56.785480	-56.968089
-10.20	-57.271562	-56.753930	-57.156268
-10.10	-57.241055	-56.738021	-57.264540
-10.00	-57.211244	-56.717638	-57.307499
-9.90	-57.175949	-56.691940	-57.282731
-9.80	-57.129860	-56.664986	-57.238796
-9.70	-57.067079	-56.617952	-57.177857
-9.60	-57.002732	-56.570226	-57.081525
-9.50	-56.952495	-56.489361	-56.996741
-9.40	-56.893825	-56.342568	-56.915296
-9.30	-56.827570	-56.077471	-56.845634
-9.20	-56.773215	-55.711988	-56.776703
-9.10	-56.718179	-55.387068	-56.695399
-9.00	-56.662494	-55.517040	-56.570483
-8.90	-56.619656	-55.790870	-56.338984
-8.80	-56.574965	-56.281137	-56.079937
-8.70	-56.546200	-56.621505	-55.968270
-8.60	-56.512048	-56.816526	-55.936833
-8.50	-56.468983	-56.911876	-55.969087
-8.40	-56.440421	-56.918399	-55.692817
-8.30	-56.407893	-56.867695	-55.545521
-8.20	-56.367475	-56.743952	-55.297053
-8.10	-56.323294	-56.546115	-55.507435
-8.00	-56.266331	-56.559594	-55.693903
-7.90	-56.141652	-56.577871	-55.943565
-7.80	-55.917557	-56.832442	-56.041692
-7.70	-55.475618	-57.006682	-56.158071
-7.60	-55.267898	-57.117931	-56.304139
-7.50	-55.255862	-57.178437	-56.436268
-7.40	-55.612892	-57.203405	-56.281891
-7.30	-56.061611	-57.222901	-56.227675
-7.20	-56.342754	-57.235432	-56.075924
-7.10	-56.460305	-57.222297	-56.392312
-7.00	-56.380820	-57.210717	-56.686857
-6.90	-56.201781	-57.188028	-57.019423
-6.80	-56.043346	-57.142474	-57.098644
-6.70	-56.022192	-57.135633	-57.030378
-6.60	-56.329743	-57.146646	-57.120935
-6.50	-56.686469	-57.145721	-57.227073
-6.40	-57.089100	-57.131265	-57.452890
-6.30	-57.370330	-57.091546	-57.417633
-6.20	-57.537029	-57.057500	-57.543274
-6.10	-57.610899	-57.029975	-57.579208
-6.00	-57.633270	-57.017469	-57.856732
-5.90	-57.630873	-57.004313	-58.071001
-5.80	-57.603272	-56.980562	-58.193618
-5.70	-57.564621	-56.950158	-58.245471
-5.60	-57.548349	-56.906055	-58.258146
-5.50	-57.522009	-56.891279	-58.249014
-5.40	-57.489928	-56.874696	-58.222612
-5.30	-57.464352	-56.858582	-58.170077
-5.20	-57.433898	-56.836934	-58.088294
-5.10	-57.399915	-56.785333	-57.971915
-5.00	-57.360942	-56.686729	-57.704256
-4.90	-57.312204	-56.461021	-57.602558
-4.80	-57.251404	-56.424182	-57.554960
-4.70	-57.198933	-56.443893	-57.735485
-4.60	-57.147768	-56.695384	-57.933514
-4.50	-57.083351	-56.903569	-58.064646
-4.40	-56.989046	-57.064235	-58.102845
-4.30	-56.833558	-57.171842	-58.084892
-4.20	-56.615240	-57.199107	-58.001834
-4.10	-56.222212	-57.217927	-57.757858
-4.00	-55.947370	-57.238488	-57.515665
-3.90	-55.566487	-57.253133	-57.483936
-3.80	-55.671885	-57.271549	-57.545874
-3.70	-55.574507	-57.282933	-57.797947
-3.60	-55.959476	-57.299096	-57.987606
-3.50	-56.261928	-57.323985	-58.067281
-3.40	-56.715448	-57.319223	-58.095256
-3.30	-57.089007	-57.314798	-58.079667
-3.20	-57.322748	-57.296974	-58.032990
-3.10	-57.453368	-57.266016	-57.996483
-3.00	-57.505208	-57.237336	-57.961246
-2.90	-57.536072	-57.188353	-57.895671
-2.80	-57.543621	-57.151704	-57.812288
-2.70	-57.544683	-57.081252	-57.653395
-2.60	-57.528986	-56.987215	-57.397802
-2.50	-57.513585	-56.851789	-57.336066
-2.40	-57.499902	-56.682542	-57.367713
-2.30	-57.481498	-56.488131	-57.571457
-2.20	-57.462354	-56.195119	-57.684636
-2.10	-57.440116	-55.816490	-57.718089
-2.00	-57.407479	-55.408869	-57.688216
-1.90	-57.373970	-55.007294	-57.590934
-1.80	-57.322631	-55.198593	-57.373655
-1.70	-57.205218	-55.476200	-57.079092
-1.60	-57.000304	-56.128418	-57.030921
-1.50	-56.656677	-56.579462	-57.011883
-1.40	-56.516673	-56.821037	-57.276525
-1.30	-56.247512	-56.835457	-57.447182
-1.20	-56.465953	-56.648540	-57.533277
-1.10	-56.639441	-56.470210	-57.513220
-1.00	-56.971022	-56.435651	-57.375742
-0.90	-57.231169	-56.550755	-57.096386
-0.80	-57.377322	-56.773475	-56.627211
-0.70	-57.476288	-56.927741	-56.472597
-0.60	-57.541150	-56.991992	-56.536943
-0.50	-57.579510	-56.980565	-56.998972
-0.40	-57.591659	-56.932465	-57.446312
-0.30	-57.596891	-56.775130	-57.758957
-0.20	-57.588200	-56.506565	-57.939445
-0.10	-57.583470	-56.456765	-58.031596
0.00	-57.577396	-56.352186	-58.071029
0.10	-57.591217	-56.393796	-58.082729
0.20	-57.580102	-56.588053	-58.081886
0.30	-57.553851	-56.705677	-58.088956
0.40	-57.526962	-57.102205	-58.096689
0.50	-57.493862	-57.366662	-58.079593
0.60	-57.461526	-57.531636	-58.061660
0.70	-57.440339	-57.590494	-58.036290
0.80	-57.430620	-57.593872	-58.004160
0.90	-57.394337	-57.544998	-57.981259
1.00	-57.357462	-57.324708	-57.948733
1.10	-57.318286	-57.222758	-57.891552
1.20	-57.277404	-57.211639	-57.843545
1.30	-57.223748	-57.439045	-57.764785
1.40	-57.182554	-57.708333	-57.635237
1.50	-57.140254	-57.869446	-57.346400
1.60	-57.067062	-57.947725	-57.301625
1.70	-56.965181	-57.968036	-57.290195
1.80	-56.771530	-57.987347	-57.536900
1.90	-56.502937	-57.966758	-57.749778
2.00	-56.473967	-57.912519	-57.886853
2.10	-56.506835	-57.884948	-57.974249
2.20	-56.753951	-57.865355	-58.021704
2.30	-56.945737	-57.829554	-58.060009
2.40	-57.057402	-57.782687	-58.074008
2.50	-57.118784	-57.729793	-58.082705
2.60	-57.101562	-57.691283	-58.074116
2.70	-57.053593	-57.650989	-58.062187
2.80	-57.025132	-57.593896	-58.048681
2.90	-56.997264	-57.527268	-58.028272
3.00	-56.954533	-57.433510	-58.009787
3.10	-56.890365	-57.249430	-58.007959
3.20	-56.816871	-57.103602	-57.997305
3.30	-56.748441	-57.068508	-57.964326
3.40	-56.675764	-57.164699	-57.933089
3.50	-56.562816	-57.349048	-57.907545
3.60	-56.394626	-57.486574	-57.869240
3.70	-56.059429	-57.589688	-57.793190
3.80	-56.044679	-57.663997	-57.661346
3.90	-56.013675	-57.673209	-57.444488
4.00	-56.286395	-57.589506	-57.204470
4.10	-56.484195	-57.430008	-56.926007
4.20	-56.570153	-57.241426	-56.578676
4.30	-56.461061	-57.025790	-56.187772
4.40	-56.203978	-56.789461	-55.761908
4.50	-56.056466	-56.481262	-55.270093
4.60	-55.898213	-56.131604	-54.554474
4.70	-55.951522	-55.564864	-53.510912
4.80	-55.784198	-54.824811	-52.192028
4.90	-55.365784	-53.867760	-50.517346
5.00	-54.859552	-52.849515	-48.545793
5.10	-54.444601	-51.676123	-46.223917
5.20	-53.973872	-50.474920	-42.757406
5.30	-53.369868	-48.709966	-39.416007
5.40	-52.431563	-46.288014	-35.575203
5.50	-51.162260	-42.239412	-32.379731
5.60	-49.381277	-37.159623	-30.084164
5.70	-46.675575	-32.233132	-32.186941
5.80	-43.302248	-28.808485	-36.723686
5.90	-38.656663	-29.940090	-43.786012
6.00	-33.766392	-34.626105	-50.919756
6.10	-29.555084	-42.043818	-55.945117
6.20	-29.494933	-49.431442	-59.168165
6.30	-33.449442	-54.514578	-60.711557
6.40	-40.419358	-57.976070	-61.212497
6.50	-48.015447	-59.682955	-61.273646
6.60	-53.957061	-60.394967	-61.016091
6.70	-57.569221	-60.733100	-60.503077
6.80	-59.627437	-60.714627	-59.787255
6.90	-60.366566	-60.660086	-58.971538
7.00	-60.395081	-60.478352	-58.107985
7.10	-59.964832	-60.185221	-57.281058
7.20	-59.530530	-59.808528	-56.466923
7.30	-59.020218	-59.282087	-55.630269
7.40	-58.894280	-58.659239	-54.761280
7.50	-58.760124	-57.961706	-53.341291
7.60	-58.800602	-57.389177	-52.237593
7.70	-58.424465	-56.811268	-50.896742
7.80	-57.987531	-56.153586	-50.145853
7.90	-57.475597	-55.315331	-48.484449
8.00	-56.950828	-54.358442	-46.682963
8.10	-56.312837	-53.014074	-43.962797
8.20	-55.717074	-51.074032	-41.371075
8.30	-55.307379	-49.134898	-39.889502
8.40	-54.881475	-47.643754	-41.266313
8.50	-54.383389	-46.766752	-43.190913
8.60	-53.551393	-45.417274	-46.013719
8.70	-52.452501	-44.410686	-48.016385
8.80	-51.070680	-43.517023	-48.880027
8.90	-49.773774	-43.603762	-48.896908
9.00	-48.755814	-43.803779	-48.952942
9.10	-47.607483	-44.149511	-49.075921
9.20	-48.102234	-44.695308	-49.619245
9.30	-48.408322	-45.462864	-49.509451
9.40	-49.488649	-46.567118	-50.461395
9.50	-49.694333	-48.256536	-50.986343
9.60	-48.716162	-49.768871	-51.619149
9.70	-47.613876	-50.989867	-52.164022
9.80	-46.586524	-52.194330	-52.234894
9.90	-47.143300	-52.834841	-52.018576
10.00	-48.020491	-53.453079	-51.459231
10.10	-48.715171	-54.044804	-50.500834
10.20	-49.056873	-54.211848	-49.713415
10.30	-48.850648	-54.005494	-49.054367
10.40	-48.544665	-53.147013	-48.266326
10.50	-49.053914	-52.109909	-46.890023
10.60	-49.695599	-51.106337	-45.569773
10.70	-50.970150	-50.498227	-44.740016
10.80	-52.372284	-50.228032	-44.990253
10.90	-53.209602	-50.025604	-45.393256
11.00	-53.858311	-49.799928	-45.402216
11.10	-53.975571	-49.258696	-45.315837
11.20	-53.773890	-48.465370	-44.781900
11.30	-53.438253	-48.142312	-45.557355
11.40	-53.162978	-48.040623	-46.157545
11.50	-52.399377	-48.734599	-47.115076
11.60	-52.295133	-48.654409	-48.473588
11.70	-52.093098	-48.874560	-49.388668
11.80	-52.062288	-48.474413	-50.312360
11.90	-52.034999	-48.896915	-51.137738
12.00	-52.087271	-49.309335	-51.517815
12.10	-51.967587	-49.697283	-52.304119
12.20	-51.591283	-49.650540	-52.859171
12.30	-51.076489	-49.205401	-53.004733
12.40	-50.123696	-48.547875	-53.165001
12.50	-49.564123	-48.185900	-52.378790
12.60	-48.777709	-48.289671	-51.945395
12.70	-48.691893	-48.387225	-51.024139
12.80	-48.641750	-48.919715	-50.150610
12.90	-48.804388	-49.567118	-48.603393
13.00	-49.125782	-50.277216	-47.711681
13.10	-49.403132	-51.182931	-47.591434
13.20	-49.940010	-52.089174	-47.989674
13.30	-50.286008	-52.505360	-49.219479
13.40	-50.067485	-52.253297	-49.942092
13.50	-49.417916	-51.538950	-50.317618
13.60	-49.303761	-50.895661	-49.907301
13.70	-48.979930	-50.476868	-48.381520
13.80	-49.078274	-50.795504	-46.815545
13.90	-49.106304	-51.196596	-45.786183
14.00	-48.688691	-51.553719	-45.584021
14.10	-49.013619	-52.039872	-46.637748
14.20	-50.101641	-51.640490	-47.366213
14.30	-51.692739	-51.376937	-47.478133
14.40	-53.393181	-51.058520	-47.924527
14.50	-54.232500	-51.090968	-47.826742
14.60	-53.902933	-51.127847	-48.614328
14.70	-54.171204	-51.093093	-48.719795
14.80	-54.030772	-51.013686	-48.346420
14.90	-54.440763	-50.721897	-48.602181
15.00	-54.931541	-50.581682	-49.189722
15.10	-54.919105	-50.244987	-50.014927
15.20	-54.522326	-49.684249	-50.555901
15.30	-53.849903	-48.091681	-50.787696
15.40	-52.817064	-47.252871	-50.595430
15.50	-51.943778	-46.204014	-50.888489
15.60	-51.319490	-46.134777	-51.398615
15.70	-51.117250	-47.203473	-51.713165
15.80	-51.109848	-48.537808	-52.484898
15.90	-51.495651	-50.437637	-53.126510
16.00	-51.438179	-51.582448	-53.293257
16.10	-51.659134	-52.161139	-52.652215
16.20	-51.270052	-52.192827	-51.272015
16.30	-50.230196	-52.475676	-49.448742
16.40	-49.332386	-52.643211	-48.002932
16.50	-48.470950	-52.738383	-47.275352
16.60	-48.474557	-52.155449	-47.353752
16.70	-48.985766	-51.184043	-48.322175
16.80	-49.896973	-50.904084	-49.195871
16.90	-50.256672	-50.388844	-49.782673
17.00	-50.562541	-50.463490	-49.792111
17.10	-50.452055	-50.318261	-49.279874
17.20	-50.993549	-49.638750	-49.231328
17.30	-51.411317	-49.629343	-48.974187
17.40	-51.466089	-49.530935	-48.683914
17.50	-51.378859	-50.201582	-48.413753
17.60	-51.121320	-50.209772	-47.733059
17.70	-51.351963	-50.767585	-47.638427
17.80	-51.695934	-50.718102	-47.565875
17.90	-52.058406	-51.073065	-48.148019
18.00	-52.389936	-51.710159	-48.942863
18.10	-52.073446	-51.919462	-50.111668
18.20	-52.060761	-51.565269	-51.209670
18.30	-51.776538	-50.514073	-52.176012
18.40	-51.711908	-49.732418	-52.713146
18.50	-51.352151	-48.979083	-52.495552
18.60	-50.687058	-49.269326	-52.288152
18.70	-49.755101	-49.200631	-51.965984
18.80	-48.787373	-50.181647	-52.328246
18.90	-48.627105	-50.551457	-52.610199
19.00	-48.840586	-51.623453	-52.673856
19.10	-49.743775	-51.567764	-51.911718
19.20	-51.042897	-51.596221	-50.336308
19.30	-51.950050	-50.641491	-49.246578
19.40	-52.882515	-51.184281	-47.592979
19.50	-53.248087	-51.693639	-46.662332
19.60	-53.573389	-52.490377	-46.276337
19.70	-53.733205	-53.153555	-47.058975
19.80	-53.504429	-52.780831	-47.682285
19.90	-53.354341	-52.499059	-49.263688
20.00	-52.875128	-51.359022	-50.641609
20.10	-52.485429	-50.711352	-51.743785
20.20	-52.045577	-50.081830	-52.486793
20.30	-51.238123	-49.910033	-52.657633
20.40	-51.035997	-49.815699	-52.393520
20.50	-50.708047	-49.961483	-51.478801
20.60	-50.998198	-49.692064	-50.180829
20.70	-51.022258	-49.908016	-49.103104
20.80	-50.597181	-49.836843	-48.267890
20.90	-50.474038	-50.345772	-47.661911
21.00	-50.409735	-50.437914	-46.922386
21.10	-50.692453	-50.251998	-46.753170
21.20	-51.041910	-49.887742	-47.320871
21.30	-50.719172	-49.546494	-48.958268
21.40	-50.646110	-49.753650	-50.838289
21.50	-50.413423	-50.378713	-52.555045
21.60	-50.950915	-51.231388	-53.386566
21.70	-51.158004	-51.627711	-53.726620
21.80	-52.094752	-51.667696	-53.273322
21.90	-52.558551	-51.958691	-52.588371
22.00	-53.008950	-52.256694	-51.721099
22.10	-52.728538	-52.518013	-50.896646
22.20	-51.937674	-51.629825	-50.143036
22.30	-50.589184	-50.876943	-48.909098
22.40	-49.283051	-50.119588	-47.342148
22.50	-48.151105	-50.806343	-45.691939
22.60	-47.326107	-51.406246	-45.624494
22.70	-48.119466	-52.136316	-46.668000
22.80	-49.320780	-52.181092	-48.521440
22.90	-50.910807	-51.967378	-50.246321
23.00	-52.097070	-50.834392	-50.698162
23.10	-52.292886	-50.908762	-50.588924
23.20	-52.732728	-50.602352	-50.267742
23.30	-52.607641	-50.739008	-49.997763
23.40	-53.064023	-50.859904	-50.595249
23.50	-53.346979	-50.436474	-50.794858
23.60	-53.391031	-50.588483	-51.409416
23.70	-53.252190	-50.851828	-51.724854
23.80	-52.885668	-50.523919	-51.979280
23.90	-51.800457	-50.177582	-51.854825
24.00	-51.463401	-50.004591	-51.787554
24.10	-51.715970	-49.158115	-51.274030
24.20	-52.444620	-49.217989	-50.815584
24.30	-53.426666	-48.526545	-50.176479