# TStellate_CT2 Optimisation
# Monday 5 November  23:11:24 EST 2012
 
#param.w.x[lsr][ts] = 0.00362462	[1e-07,0.3]
#param.w.x[hsr][ts] = 0.002329	[1e-07,0.3]
#param.w.x[ds][ts] = 0.000116176	[1e-07,0.3]
#param.w.x[tv][ts] = 0.0004617	[1e-07,0.3]
#param.w.x[glg][ts] = 0.000503486	[1e-07,0.3]
#param.ts_gleak = 0.000473644	[5e-05,0.005]
#param.ts_erev = -64.985	[0.03,0.08]
# final error=20.061806
# Time	Error Vec	 Reference Vec (mV)
-20.00	-60.712401	-65.000000
-19.90	-60.712401	-64.820544
-19.80	-60.712401	-64.667049
-19.70	-60.712401	-64.533671
-19.60	-60.712401	-64.416137
-19.50	-60.712401	-64.311234
-19.40	-60.712401	-64.216525
-19.30	-60.712401	-64.130157
-19.20	-60.712401	-64.050710
-19.10	-60.712401	-63.977041
-19.00	-60.712401	-63.908309
-18.90	-60.712401	-63.843864
-18.80	-60.712401	-63.783194
-18.70	-60.712401	-63.725894
-18.60	-60.712401	-63.671634
-18.50	-60.712401	-63.620148
-18.40	-60.712401	-63.571215
-18.30	-60.712401	-63.523023
-18.20	-60.712401	-63.474684
-18.10	-60.712401	-63.425863
-18.00	-60.712401	-63.376544
-17.90	-60.712401	-63.326886
-17.80	-60.712401	-63.275500
-17.70	-60.712401	-63.220288
-17.60	-60.712401	-63.160584
-17.50	-60.712401	-63.098152
-17.40	-60.712401	-63.034364
-17.30	-60.712401	-62.971859
-17.20	-60.712401	-62.910455
-17.10	-60.712401	-62.850126
-17.00	-60.712401	-62.792714
-16.90	-60.712401	-62.737754
-16.80	-60.712401	-62.684780
-16.70	-60.712401	-62.633338
-16.60	-60.712401	-62.578522
-16.50	-60.712401	-62.516570
-16.40	-60.712401	-62.449419
-16.30	-60.712401	-62.374182
-16.20	-60.712401	-62.288545
-16.10	-60.712401	-62.199744
-16.00	-60.712401	-62.114811
-15.90	-60.712401	-62.029660
-15.80	-60.712401	-61.937735
-15.70	-60.712401	-61.841049
-15.60	-60.712401	-61.746246
-15.50	-60.712401	-61.655538
-15.40	-60.712401	-61.565481
-15.30	-60.712401	-61.475801
-15.20	-60.712401	-61.388100
-15.10	-60.712401	-61.301908
-15.00	-60.712401	-61.212488
-14.90	-60.712401	-61.117768
-14.80	-60.712401	-61.026106
-14.70	-60.712401	-60.941891
-14.60	-60.712401	-60.861230
-14.50	-60.712401	-60.781997
-14.40	-60.712401	-60.704305
-14.30	-60.712401	-60.629944
-14.20	-60.712401	-60.558364
-14.10	-60.712401	-60.487728
-14.00	-60.712401	-60.418871
-13.90	-60.712401	-60.352426
-13.80	-60.712401	-60.290038
-13.70	-60.712401	-60.228142
-13.60	-60.712401	-60.158379
-13.50	-60.712401	-60.078105
-13.40	-60.712401	-59.991973
-13.30	-60.712401	-59.900378
-13.20	-60.712401	-59.804967
-13.10	-60.712401	-59.712398
-13.00	-60.712401	-59.620004
-12.90	-60.712401	-59.517814
-12.80	-60.712401	-59.399085
-12.70	-60.712401	-59.261932
-12.60	-60.712401	-59.104883
-12.50	-60.712401	-58.926976
-12.40	-60.712401	-58.702718
-12.30	-60.712401	-58.275663
-12.20	-60.712401	-58.097370
-12.10	-60.712401	-57.990406
-12.00	-60.712401	-58.159220
-11.90	-60.712401	-58.322358
-11.80	-60.712401	-58.398763
-11.70	-60.712401	-58.352112
-11.60	-60.712401	-58.236870
-11.50	-60.712401	-58.062687
-11.40	-60.712401	-57.724638
-11.30	-60.712401	-57.526629
-11.20	-60.712401	-57.453686
-11.10	-60.712401	-57.660747
-11.00	-60.712401	-57.853193
-10.90	-60.712401	-57.948359
-10.80	-60.712401	-57.936466
-10.70	-60.712401	-57.861600
-10.60	-60.712401	-57.729097
-10.50	-60.712401	-57.490654
-10.40	-60.712401	-57.108004
-10.30	-60.712401	-56.957136
-10.20	-60.712401	-56.872282
-10.10	-60.712401	-56.843291
-10.00	-60.712401	-56.613446
-9.90	-60.712401	-56.728904
-9.80	-60.712401	-56.909318
-9.70	-60.712401	-57.312595
-9.60	-60.712401	-57.574638
-9.50	-60.712401	-57.673037
-9.40	-60.712401	-57.578996
-9.30	-60.712401	-57.271727
-9.20	-60.712401	-57.211028
-9.10	-60.712401	-57.129897
-9.00	-60.712401	-57.132345
-8.90	-60.712401	-57.360055
-8.80	-60.712401	-57.595302
-8.70	-60.712401	-57.936185
-8.60	-60.712401	-58.183204
-8.50	-60.712401	-58.316323
-8.40	-60.712401	-58.371552
-8.30	-60.712401	-58.396471
-8.20	-60.712401	-58.409967
-8.10	-60.712401	-58.415076
-8.00	-60.712401	-58.416709
-7.90	-60.712401	-58.417725
-7.80	-60.712401	-58.414044
-7.70	-60.712401	-58.404512
-7.60	-60.712401	-58.389416
-7.50	-60.712401	-58.365578
-7.40	-60.712401	-58.322520
-7.30	-60.712401	-58.224337
-7.20	-60.712401	-57.928352
-7.10	-60.712401	-57.913198
-7.00	-60.712401	-57.926894
-6.90	-60.712401	-58.254418
-6.80	-60.712401	-58.511041
-6.70	-60.712401	-58.668554
-6.60	-60.712401	-58.737775
-6.50	-60.712401	-58.769687
-6.40	-60.712401	-58.788891
-6.30	-60.712401	-58.807971
-6.20	-60.712401	-58.826936
-6.10	-60.712401	-58.832131
-6.00	-60.712401	-58.820018
-5.90	-60.712401	-58.798023
-5.80	-60.712401	-58.767177
-5.70	-60.712401	-58.715031
-5.60	-60.712401	-58.610278
-5.50	-60.712401	-58.334104
-5.40	-60.712401	-58.257445
-5.30	-60.712401	-58.259641
-5.20	-60.712401	-58.544517
-5.10	-60.712401	-58.806527
-5.00	-60.712401	-58.980718
-4.90	-60.712401	-59.063697
-4.80	-60.712401	-59.099441
-4.70	-60.709774	-59.114469
-4.60	-60.706489	-59.122668
-4.50	-60.703204	-59.126156
-4.40	-60.699919	-59.125567
-4.30	-60.696634	-59.126958
-4.20	-60.693350	-59.132958
-4.10	-60.690065	-59.143269
-4.00	-60.686780	-59.153087
-3.90	-60.683495	-59.152745
-3.80	-60.680210	-59.137497
-3.70	-60.676925	-59.115775
-3.60	-60.673640	-59.091681
-3.50	-60.670355	-59.066101
-3.40	-60.667070	-59.041133
-3.30	-60.663785	-59.014672
-3.20	-60.660500	-58.982116
-3.10	-60.657215	-58.939101
-3.00	-60.653930	-58.889426
-2.90	-60.650645	-58.839259
-2.80	-60.647360	-58.792988
-2.70	-60.644075	-58.753313
-2.60	-60.640790	-58.716961
-2.50	-60.637506	-58.678307
-2.40	-60.634221	-58.630664
-2.30	-60.630936	-58.563240
-2.20	-60.627651	-58.471118
-2.10	-60.624366	-58.349471
-2.00	-60.621081	-58.175036
-1.90	-60.617796	-57.866593
-1.80	-60.614511	-57.640719
-1.70	-60.611226	-57.532673
-1.60	-60.607941	-57.639491
-1.50	-60.602450	-57.678355
-1.40	-60.595877	-57.448698
-1.30	-60.589305	-57.431936
-1.20	-60.582732	-57.320108
-1.10	-60.576159	-57.324066
-1.00	-60.569586	-57.461585
-0.90	-60.563014	-57.555764
-0.80	-60.556441	-57.841604
-0.70	-60.549868	-58.038108
-0.60	-60.543295	-58.092282
-0.50	-60.536723	-57.980865
-0.40	-60.530150	-57.727584
-0.30	-60.523577	-57.681125
-0.20	-60.517004	-57.694097
-0.10	-60.510431	-57.894383
0.00	-60.503859	-58.017523
0.10	-60.477012	-58.074836
0.20	-60.437401	-58.076875
0.30	-60.397790	-58.052777
0.40	-60.358179	-58.023806
0.50	-60.318568	-57.998749
0.60	-60.278957	-57.980294
0.70	-60.239346	-57.968527
0.80	-60.199735	-57.964075
0.90	-60.160124	-57.965617
1.00	-60.120514	-57.971738
1.10	-60.080903	-57.982865
1.20	-60.041292	-57.998805
1.30	-60.001681	-58.017784
1.40	-59.962070	-58.033358
1.50	-59.922459	-58.044197
1.60	-59.882848	-58.054954
1.70	-59.754192	-58.059518
1.80	-59.572571	-58.050435
1.90	-59.390949	-58.029241
2.00	-59.209328	-58.000329
2.10	-59.027706	-57.966002
2.20	-58.802370	-57.928773
2.30	-58.510663	-57.880800
2.40	-58.218956	-57.815657
2.50	-57.927250	-57.735096
2.60	-57.635543	-57.642744
2.70	-57.343837	-57.538128
2.80	-57.052130	-57.403249
2.90	-55.588737	-57.192645
3.00	-53.440009	-56.752192
3.10	-52.935220	-56.436605
3.20	-52.430431	-56.385523
3.30	-51.925643	-56.731522
3.40	-51.623092	-57.148480
3.50	-51.357883	-57.388530
3.60	-51.092673	-57.454805
3.70	-50.827464	-57.363661
3.80	-50.562254	-57.046102
3.90	-46.487309	-56.975168
4.00	-42.814877	-56.858069
4.10	-40.228731	-56.929698
4.20	-37.755161	-56.815934
4.30	-39.872363	-56.864306
4.40	-41.989566	-56.905138
4.50	-44.122800	-57.099993
4.60	-46.270169	-57.105198
4.70	-48.417537	-56.916791
4.80	-50.564906	-56.829343
4.90	-52.712274	-56.611413
5.00	-53.644519	-56.825114
5.10	-53.447363	-56.942352
5.20	-53.250207	-57.259336
5.30	-53.053050	-57.382813
5.40	-52.855894	-57.245580
5.50	-52.658737	-57.294815
5.60	-52.461581	-57.308445
5.70	-52.166489	-57.575951
5.80	-51.794189	-57.731861
5.90	-51.421890	-57.693255
6.00	-51.049591	-57.589488
6.10	-50.677292	-57.625526
6.20	-48.747085	-57.819901
6.30	-44.961797	-58.072412
6.40	-41.609471	-58.233973
6.50	-42.829191	-58.303595
6.60	-44.048911	-58.309642
6.70	-45.268632	-58.263487
6.80	-46.488352	-58.137052
6.90	-47.708073	-57.866201
7.00	-48.927793	-57.736643
7.10	-48.741211	-57.639222
7.20	-47.903060	-57.902347
7.30	-47.064908	-58.226111
7.40	-46.226757	-58.584649
7.50	-45.388606	-58.810871
7.60	-44.550455	-58.932462
7.70	-44.201989	-58.986262
7.80	-45.237141	-59.009950
7.90	-46.272292	-59.023716
8.00	-47.307444	-59.031669
8.10	-48.342595	-59.035705
8.20	-49.377747	-59.035943
8.30	-50.246749	-59.036497
8.40	-47.328584	-59.040995
8.50	-44.410419	-59.045322
8.60	-43.317536	-59.046255
8.70	-44.248713	-59.043465
8.80	-45.179891	-59.036346
8.90	-46.111069	-59.022493
9.00	-47.042247	-58.998539
9.10	-47.973425	-58.967417
9.20	-48.670911	-58.935149
9.30	-48.941476	-58.904930
9.40	-49.212042	-58.875604
9.50	-49.482608	-58.843569
9.60	-49.753174	-58.810109
9.70	-50.023740	-58.776394
9.80	-50.294305	-58.741328
9.90	-50.564871	-58.698614
10.00	-50.214268	-58.642394
10.10	-49.825649	-58.579371
10.20	-49.437030	-58.519563
10.30	-49.048411	-58.465898
10.40	-48.659792	-58.406517
10.50	-48.271173	-58.327061
10.60	-46.100213	-58.199063
10.70	-40.244893	-57.922502
10.80	-41.384301	-57.767632
10.90	-42.523708	-57.704271
11.00	-43.663116	-57.863020
11.10	-44.802523	-57.958357
11.20	-45.941931	-57.774354
11.30	-47.081338	-57.832685
11.40	-48.220746	-57.829126
11.50	-49.331294	-58.042040
11.60	-49.758492	-57.982254
11.70	-50.185689	-58.126077
11.80	-50.612886	-58.180484
11.90	-51.040084	-58.523643
12.00	-51.467281	-58.759090
12.10	-51.705661	-58.905664
12.20	-51.605840	-58.974441
12.30	-51.506018	-59.006843
12.40	-51.406196	-59.019930
12.50	-51.306374	-59.022757
12.60	-51.179882	-59.022923
12.70	-50.708634	-59.021426
12.80	-50.237386	-59.019051
12.90	-49.766137	-59.014621
13.00	-49.871782	-59.003588
13.10	-50.210321	-58.981896
13.20	-50.548861	-58.952474
13.30	-50.887400	-58.921844
13.40	-51.225939	-58.890376
13.50	-51.476719	-58.854793
13.60	-50.944894	-58.811292
13.70	-50.413068	-58.760786
13.80	-49.881242	-58.708848
13.90	-49.349416	-58.655349
14.00	-48.817590	-58.597322
14.10	-48.285764	-58.533319
14.20	-47.753938	-58.456763
14.30	-47.222112	-58.348372
14.40	-48.765195	-58.144651
14.50	-50.942391	-57.879241
14.60	-52.609590	-57.814987
14.70	-52.706813	-57.856045
14.80	-52.804035	-57.918241
14.90	-52.901257	-57.861317
15.00	-52.998479	-57.930054
15.10	-53.095701	-58.086415
15.20	-53.052466	-58.342101
15.30	-52.977849	-58.501132
15.40	-52.903232	-58.568885
15.50	-52.828616	-58.583848
15.60	-52.753999	-58.581063
15.70	-52.679382	-58.574222
15.80	-52.604765	-58.564353
15.90	-51.476450	-58.544067
16.00	-49.987843	-58.500180
16.10	-48.499235	-58.406864
16.20	-48.675208	-58.183994
16.30	-49.355623	-58.092512
16.40	-50.036039	-58.095288
16.50	-50.716455	-58.343549
16.60	-51.396870	-58.564629
16.70	-52.077286	-58.680721
16.80	-53.386697	-58.623842
16.90	-53.615853	-58.485475
17.00	-53.845009	-58.532230
17.10	-54.050278	-58.699593
17.20	-53.774492	-58.985731
17.30	-53.498705	-59.174339
17.40	-53.222919	-59.270604
17.50	-52.822527	-59.302704
17.60	-52.340130	-59.301482
17.70	-51.857733	-59.283409
17.80	-51.375336	-59.252412
17.90	-50.892939	-59.213028
18.00	-48.710486	-59.163817
18.10	-46.443485	-59.103996
18.20	-46.383911	-59.033508
18.30	-46.324336	-58.947967
18.40	-46.264762	-58.852212
18.50	-46.205187	-58.752467
18.60	-46.157002	-58.650150
18.70	-46.413817	-58.547870
18.80	-46.670632	-58.443155
18.90	-46.927448	-58.322603
19.00	-47.388608	-58.149097
19.10	-48.251152	-57.752417
19.20	-49.113695	-57.639509
19.30	-49.976239	-57.564252
19.40	-50.681858	-57.749182
19.50	-51.020397	-57.931230
19.60	-51.358936	-58.028313
19.70	-51.697475	-58.008645
19.80	-52.036014	-57.939059
19.90	-52.374553	-57.857716
20.00	-52.839439	-57.774911
20.10	-53.361647	-57.689999
20.20	-53.883856	-57.598442
20.30	-54.406064	-57.491844
20.40	-54.224593	-57.343294
20.50	-53.916901	-57.075807
20.60	-53.609209	-56.939398
20.70	-53.301516	-56.901604
20.80	-52.993824	-57.128958
20.90	-52.686132	-57.328967
21.00	-52.378440	-57.456488
21.10	-54.580800	-57.515327
21.20	-54.565995	-57.530739
21.30	-54.551190	-57.518324
21.40	-54.536385	-57.466151
21.50	-54.521580	-57.316903
21.60	-54.506775	-56.971045
21.70	-54.491970	-56.947441
21.80	-54.477165	-56.928577
21.90	-54.462360	-57.223882
22.00	-54.447555	-57.464252
22.10	-54.432750	-57.627139
22.20	-54.417945	-57.706284
22.30	-54.403140	-57.750730
22.40	-54.388335	-57.781949
22.50	-54.267274	-57.805786
22.60	-54.007342	-57.826516
22.70	-53.747411	-57.846475
22.80	-53.487479	-57.861680
22.90	-53.227547	-57.867297
23.00	-52.967616	-57.857369
23.10	-52.707684	-57.812255
23.20	-52.707413	-57.693355
23.30	-52.936569	-57.389085
23.40	-53.165725	-57.256075
23.50	-53.394881	-57.118145
23.60	-53.624037	-57.092876
23.70	-53.853193	-57.032103
23.80	-54.082349	-57.065360
23.90	-54.311505	-57.374494
24.00	-54.540661	-57.830995
24.10	-54.769817	-58.169859
24.20	-54.998973	-58.366426
24.30	-55.228129	-58.477144
24.40	-55.457285	-58.534751
24.50	-55.399143	-58.547992
24.60	-55.175955	-58.528105
24.70	-54.952767	-58.488107
24.80	-54.729578	-58.439864
24.90	-54.506390	-58.394219
25.00	-54.131686	-58.349431
25.10	-53.558959	-58.307525
25.20	-52.986232	-58.275111
25.30	-52.413504	-58.249243
25.40	-51.840777	-58.221963
25.50	-51.792743	-58.192620
25.60	-52.365702	-58.163678
25.70	-52.938662	-58.135447
25.80	-53.511622	-58.108826
25.90	-53.621238	-58.075003
26.00	-53.408484	-58.032618
26.10	-53.195730	-57.989219
26.20	-52.982975	-57.943496
26.30	-52.770221	-57.893485
26.40	-52.557466	-57.846343
26.50	-52.344712	-57.811110
26.60	-52.487400	-57.789114
26.70	-52.825939	-57.772535
26.80	-53.164478	-57.752486
26.90	-53.503017	-57.728937
27.00	-53.841556	-57.701173
27.10	-54.157949	-57.660021
27.20	-53.828840	-57.595563
27.30	-53.499730	-57.504037
27.40	-53.170621	-57.351038
27.50	-52.841512	-57.023078
27.60	-52.512403	-56.987045
27.70	-51.837729	-56.946072
27.80	-51.125591	-57.206902
27.90	-50.413452	-57.381329
28.00	-49.701313	-57.468432
28.10	-49.004580	-57.480501
28.20	-49.632517	-57.450697
28.30	-50.260453	-57.393860
28.40	-50.888389	-57.299755
28.50	-51.516325	-57.107847
28.60	-52.144262	-56.561552
28.70	-52.772198	-56.345212
28.80	-53.400134	-56.308664
28.90	-54.028070	-56.770895
29.00	-54.656006	-57.239717
29.10	-54.991816	-57.535048
29.20	-54.509419	-57.621876
29.30	-54.027022	-57.586508
29.40	-53.544625	-57.454762
29.50	-53.062228	-57.165615
29.60	-52.680990	-56.855604
29.70	-52.636398	-56.761690
29.80	-52.591806	-57.003751
29.90	-52.547214	-57.454521
30.00	-52.502622	-57.846570
30.10	-52.458030	-58.092049
30.20	-52.413438	-58.198985
30.30	-52.288562	-58.223218
30.40	-51.629265	-58.202858
30.50	-50.969969	-58.154305
30.60	-50.310672	-58.082779
30.70	-49.651376	-57.988459
30.80	-48.992079	-57.879751
30.90	-48.332783	-57.767025
31.00	-49.426736	-57.657744
31.10	-51.858053	-57.554254
31.20	-54.289370	-57.453299
31.30	-54.082829	-57.353011
31.40	-53.644840	-57.253900
31.50	-53.206851	-57.159071
31.60	-52.768862	-57.070938
31.70	-52.330874	-56.988637
31.80	-52.739599	-56.909044
31.90	-53.287276	-56.817641
32.00	-53.834954	-56.682867
32.10	-54.382631	-56.415027
32.20	-54.930308	-55.888954
32.30	-55.418309	-55.710438
32.40	-55.199298	-55.754435
32.50	-54.980286	-56.221180
32.60	-54.761275	-56.663099
32.70	-54.542264	-56.935310
32.80	-54.323252	-57.032260
32.90	-54.104241	-57.031519
33.00	-53.885229	-56.982434
33.10	-53.666218	-56.891389
33.20	-53.686710	-56.729593
33.30	-54.060979	-56.411084
33.40	-54.435248	-56.374152
33.50	-54.809517	-56.343444
33.60	-55.183786	-56.605971
33.70	-55.558055	-56.780503
33.80	-55.577905	-56.877041
33.90	-55.488186	-56.895392
34.00	-55.398466	-56.860300
34.10	-55.308747	-56.791580
34.20	-55.219027	-56.693158
34.30	-55.129307	-56.559034
34.40	-55.039588	-56.382823
34.50	-54.727337	-56.177614
34.60	-54.322330	-55.899217
34.70	-53.917323	-55.901015
34.80	-53.448014	-55.768448
34.90	-52.840881	-55.754224
35.00	-52.233748	-55.385296
35.10	-51.630696	-54.673385
35.20	-51.290834	-53.661295
35.30	-50.950972	-52.400035
35.40	-50.611109	-50.832606
35.50	-50.271247	-48.730452
35.60	-49.931385	-45.436268
35.70	-49.591523	-41.527020
35.80	-49.380004	-36.186339
35.90	-49.740024	-31.746245
36.00	-50.100044	-29.320691
36.10	-50.460064	-29.809321
36.20	-50.820084	-34.595564
36.30	-51.180104	-40.994020
36.40	-51.540124	-48.005864
36.50	-51.900144	-53.191284
36.60	-52.260164	-56.402077
36.70	-52.620184	-58.050694
36.80	-52.830280	-58.675059
36.90	-53.003476	-58.751798
37.00	-53.176672	-58.575764
37.10	-53.349868	-58.301481
37.20	-53.523064	-57.993457
37.30	-53.673616	-57.675738
37.40	-53.775633	-57.339162
37.50	-53.877649	-56.951306
37.60	-53.979666	-56.480707
37.70	-54.081683	-56.012210
37.80	-54.183700	-55.610135
37.90	-54.285717	-55.246162
38.00	-54.356461	-54.882343
38.10	-54.048769	-54.624892
38.20	-53.741077	-54.509367
38.30	-53.433385	-54.430320
38.40	-53.125692	-54.266455
38.50	-52.818000	-54.024376
38.60	-53.161868	-53.707480
38.70	-53.553868	-53.310412
38.80	-53.945868	-52.800979
38.90	-54.337868	-52.053085
39.00	-54.729868	-51.477808
39.10	-54.909979	-50.670961
39.20	-54.537680	-50.054499
39.30	-54.165381	-49.658294
39.40	-53.793081	-49.243060
39.50	-53.420782	-48.518549
39.60	-53.048483	-46.761768
39.70	-52.676184	-45.030874
39.80	-52.731567	-43.726277
39.90	-53.262286	-43.129456
40.00	-53.793005	-43.426519
40.10	-54.323724	-44.140828
40.20	-54.854443	-45.474378
40.30	-55.385162	-46.864362
40.40	-55.305326	-47.774632
40.50	-54.971919	-48.221235
40.60	-54.638512	-48.546820
40.70	-54.305105	-48.666614
40.80	-53.971698	-48.764191
40.90	-53.638291	-48.858620
41.00	-53.304885	-49.169233
41.10	-52.971478	-49.486175
41.20	-52.709868	-49.800573
41.30	-52.826232	-50.295680
41.40	-52.942595	-50.780626
41.50	-53.058959	-51.916466
41.60	-52.827096	-52.959170
41.70	-52.288482	-53.628787
41.80	-51.749868	-53.979367
41.90	-51.209891	-53.779171
42.00	-50.664477	-53.920817
42.10	-50.119064	-53.807640
42.20	-49.573651	-53.761993
42.30	-49.028237	-53.371729
42.40	-48.482824	-52.908174
42.50	-47.937411	-52.288739
42.60	-47.391997	-51.978429
42.70	-46.846584	-51.751404
42.80	-47.450342	-51.807138
42.90	-48.211163	-51.639120
43.00	-48.971985	-51.633158
43.10	-49.732806	-51.289218
43.20	-50.493628	-51.224860
43.30	-51.254449	-50.810765
43.40	-51.749868	-49.980544
43.50	-52.220573	-49.581247
43.60	-52.691277	-48.786787
43.70	-53.161982	-48.491165
43.80	-53.632686	-47.779661
43.90	-54.103391	-47.576432
44.00	-54.574096	-47.440397
44.10	-54.893787	-47.160953
44.20	-54.846204	-46.655583
44.30	-54.798620	-46.467344
44.40	-54.751036	-46.872818
44.50	-54.703453	-47.600539
44.60	-54.655869	-48.487535
44.70	-54.608285	-48.791566
44.80	-54.560702	-49.379221
44.90	-54.513118	-50.126503
45.00	-54.156865	-50.824497
45.10	-53.373192	-51.292475
45.20	-52.589518	-51.238547
45.30	-51.805845	-51.407380
45.40	-51.022171	-51.236188
45.50	-51.120484	-51.565370
45.60	-51.881306	-51.678867
45.70	-52.642127	-52.295072
45.80	-53.402949	-52.829061
45.90	-54.163770	-53.237141
46.00	-54.924592	-53.183958
46.10	-54.877141	-52.504523
46.20	-54.304414	-51.528053
46.30	-53.731686	-50.920150
46.40	-53.158959	-50.525447
46.50	-52.586232	-50.465592
46.60	-52.013504	-50.156044
46.70	-51.440777	-49.937645
46.80	-50.868050	-50.021778
46.90	-50.642703	-50.774423
47.00	-51.177670	-51.430827
47.10	-51.712636	-51.810212
47.20	-52.247602	-51.834387
47.30	-52.782569	-51.744911
47.40	-53.317535	-51.490538
47.50	-53.852501	-51.059114
47.60	-54.387468	-50.292316
47.70	-54.767127	-49.710012
47.80	-55.051391	-49.471825
47.90	-55.335655	-49.596822
48.00	-55.619919	-49.774660
48.10	-55.308871	-49.914132
48.20	-54.936572	-49.368240
48.30	-54.564273	-49.298469
48.40	-54.191973	-48.800319
48.50	-53.819674	-48.812608
48.60	-54.090167	-48.758671
48.70	-54.517364	-48.760975
48.80	-54.944561	-48.539257
48.90	-55.371759	-48.226624
49.00	-55.798956	-48.113705
49.10	-56.205409	-48.310845
49.20	-56.462225	-48.992036
49.30	-56.719040	-49.845990
49.40	-56.975855	-50.388863
49.50	-57.232671	-50.503092
49.60	-57.489486	-50.570136
49.70	-57.746301	-50.495342
49.80	-58.003116	-50.800879
49.90	-58.209547	-50.711448
50.00	-58.396813	-50.128154
50.10	-58.584080	-49.265114
50.20	-58.771347	-48.482613
50.30	-58.958614	-48.651825
50.40	-59.145881	-49.686400
50.50	-59.333148	-51.025612
50.60	-59.508392	-52.196970
50.70	-59.665440	-52.671587
50.80	-59.822488	-52.270631
50.90	-59.979536	-51.362598
51.00	-60.136584	-51.004316
51.10	-60.293632	-50.740946
51.20	-60.450680	-51.275153
51.30	-60.607728	-51.458193
51.40	-60.764776	-51.322271
51.50	-60.921824	-50.303739
51.60	-61.078872	-49.433560
51.70	-61.235920	-48.290317
51.80	-61.392968	-48.279556
51.90	-61.508915	-48.538234
52.00	-61.600650	-48.962458
52.10	-61.692385	-49.852548
52.20	-61.784120	-50.415066
52.30	-61.875855	-50.809836
52.40	-61.967590	-50.197395
52.50	-62.059325	-50.051762
52.60	-62.151059	-49.992044
52.70	-62.242794	-50.864386
52.80	-62.334529	-51.644689
52.90	-62.426264	-51.960140
53.00	-62.517999	-51.686170
53.10	-62.609734	-51.792534
53.20	-62.673595	-51.720878
53.30	-62.736706	-51.968252
53.40	-62.799818	-52.078229
53.50	-62.862929	-51.621924
53.60	-62.926040	-50.722032
53.70	-62.989152	-49.949666
53.80	-63.052263	-49.475808
53.90	-63.115374	-49.686749
54.00	-63.178486	-49.820822
54.10	-63.241597	-49.982151
54.20	-63.304708	-49.738532
54.30	-63.367819	-50.029583
54.40	-63.430931	-50.025701
54.50	-63.494042	-50.001453
54.60	-63.557153	-49.251283
54.70	-63.620265	-49.024912
54.80	-63.683376	-48.411764
54.90	-63.746487	-49.200994
55.00	-63.809598	-49.649221
55.10	-63.872710	-51.019108
55.20	-63.935821	-52.018264
55.30	-63.998932	-52.895917
55.40	-64.062044	-53.220580
55.50	-64.097506	-52.811776
55.60	-64.111386	-52.252801
55.70	-64.125267	-51.384273
55.80	-64.139148	-51.117989
55.90	-64.153028	-50.871672
56.00	-64.166909	-51.192299
56.10	-64.180790	-51.356422
56.20	-64.194671	-51.698856
56.30	-64.208551	-51.904186
56.40	-64.222432	-51.966369
56.50	-64.236313	-52.002180
56.60	-64.250193	-51.767150
56.70	-64.264074	-51.410218
56.80	-64.277955	-50.946526
56.90	-64.291836	-50.063569
57.00	-64.305716	-49.040379
57.10	-64.319597	-47.902806
57.20	-64.333478	-47.291617
57.30	-64.347358	-47.669726
57.40	-64.361239	-48.575778
57.50	-64.375120	-49.680610
57.60	-64.389001	-50.168170
57.70	-64.402881	-50.475603
57.80	-64.416762	-50.721130
57.90	-64.430643	-50.755769
58.00	-64.444523	-51.223860
58.10	-64.458404	-51.166430
58.20	-64.472285	-51.329590
58.30	-64.486166	-51.353086
58.40	-64.500046	-51.350403
58.50	-64.511873	-51.592173
58.60	-64.511873	-51.587553
58.70	-64.511873	-51.476987
58.80	-64.511873	-50.819483
58.90	-64.511873	-49.913209
59.00	-64.511873	-48.958833
59.10	-64.511873	-48.275426
59.20	-64.511873	-48.089304
59.30	-64.511873	-48.101577
59.40	-64.511873	-48.055145
59.50	-64.511873	-48.599675
59.60	-64.511873	-49.144774
59.70	-64.511873	-50.038144
59.80	-64.511873	-50.725494
59.90	-64.511873	-51.286877
60.00	-64.511873	-51.329544
60.10	-64.511873	-51.255683
60.20	-64.511873	-51.281939
60.30	-64.511873	-51.057944
60.40	-64.511873	-51.322716
60.50	-64.511873	-51.158515
60.60	-64.511873	-51.156035
60.70	-64.511873	-51.170213
60.80	-64.511873	-51.191335
60.90	-64.511873	-51.423136
61.00	-64.511873	-51.610323
61.10	-64.511873	-51.808322
61.20	-64.507359	-51.788051
61.30	-64.494895	-51.354632
61.40	-64.482432	-51.701111
61.50	-64.469968	-51.830417
61.60	-64.457505	-52.593436
61.70	-64.445041	-52.967315
61.80	-64.432578	-52.891388
61.90	-64.420114	-52.192588
62.00	-64.407651	-51.188364
62.10	-64.395187	-50.721694
62.20	-64.382724	-50.578063
62.30	-64.370260	-50.842428
62.40	-64.357797	-50.717753
62.50	-64.345333	-50.475132
62.60	-64.332870	-49.973084
62.70	-64.320406	-49.517343
62.80	-64.307943	-49.127827
62.90	-64.295479	-48.330568
63.00	-64.283016	-47.348061
63.10	-64.270552	-46.348407
63.20	-64.258089	-46.284855
63.30	-64.245625	-46.718949
63.40	-64.233162	-47.336991
63.50	-64.220699	-47.553241
63.60	-64.208235	-47.122108
63.70	-64.195772	-46.589601
63.80	-64.183308	-46.791460
63.90	-64.170845	-47.617992
64.00	-64.158381	-49.375356
64.10	-64.145918	-50.976713
64.20	-64.133454	-51.897103
64.30	-64.120991	-52.333578
64.40	-64.108527	-52.402129
64.50	-64.096064	-52.477667
64.60	-64.076139	-52.742484
64.70	-64.048456	-52.998282
64.80	-64.020772	-53.360912
64.90	-63.993088	-53.353069
65.00	-63.965405	-52.690599
65.10	-63.937721	-52.143853
65.20	-63.910038	-51.964443
65.30	-63.882354	-52.330985
65.40	-63.854670	-52.816570
65.50	-63.826987	-52.817783
65.60	-63.799303	-52.639392
65.70	-63.771619	-52.424867
65.80	-63.743936	-52.232786
65.90	-63.716252	-52.390958
66.00	-63.688569	-52.301767
66.10	-63.660885	-52.219366
66.20	-63.633201	-51.705055
66.30	-63.605518	-50.678363
66.40	-63.577834	-49.700556
66.50	-63.550151	-48.978541
66.60	-63.522467	-48.671005
66.70	-63.494783	-48.744039
66.80	-63.467100	-48.552230
66.90	-63.439416	-48.980788
67.00	-63.411732	-49.401782
67.10	-63.384049	-49.835535
67.20	-63.356365	-49.377510
67.30	-63.341411	-48.455107
67.40	-63.329572	-47.881475
67.50	-63.317733	-47.836748
67.60	-63.305893	-48.914194
67.70	-63.294054	-49.502778
67.80	-63.282215	-50.067083
67.90	-63.270375	-50.100242
68.00	-63.258536	-49.685752
68.10	-63.246697	-49.587763
68.20	-63.234858	-49.657513
68.30	-63.223018	-49.975620
68.40	-63.211179	-50.276235
68.50	-63.199340	-50.284318
68.60	-63.187500	-50.089462
68.70	-63.175661	-50.018938
68.80	-63.163822	-49.854554
68.90	-63.151982	-49.945955
69.00	-63.140143	-50.367639
69.10	-63.128304	-50.914521
69.20	-63.116464	-51.595986
69.30	-63.104625	-51.480676
69.40	-63.092786	-51.369070
69.50	-63.080946	-51.068522
69.60	-63.069107	-51.276552
69.70	-63.057268	-51.979153
69.80	-63.045428	-52.868325
69.90	-63.033589	-53.765722
70.00	-63.021750	-54.350998
70.10	-63.009910	-54.538932
70.20	-62.998071	-54.371503
70.30	-62.986232	-53.738824
70.40	-62.974392	-53.069501
70.50	-62.962553	-52.783957
70.60	-62.950714	-52.726573
70.70	-62.938874	-52.829911
70.80	-62.927323	-52.834279
70.90	-62.917459	-52.516872
71.00	-62.907596	-51.990378
71.10	-62.897732	-51.492813
71.20	-62.887869	-51.088586
71.30	-62.878005	-51.100533
71.40	-62.868142	-51.191102
71.50	-62.858278	-51.700959
71.60	-62.848415	-51.900120
71.70	-62.838551	-52.221356
71.80	-62.828688	-52.610309
71.90	-62.818824	-52.893978
72.00	-62.808961	-53.148310
72.10	-62.799097	-52.879014
72.20	-62.789234	-52.350944
72.30	-62.779370	-51.932396
72.40	-62.769507	-51.412923
72.50	-62.759644	-50.732922
72.60	-62.749780	-49.679933
72.70	-62.739917	-48.919130
72.80	-62.730053	-48.938755
72.90	-62.720190	-49.436579
73.00	-62.710326	-49.801824
73.10	-62.700463	-49.620864
73.20	-62.690599	-48.549036
73.30	-62.680736	-48.301385
73.40	-62.670872	-48.122268
73.50	-62.661009	-49.161559
73.60	-62.651145	-49.952410
73.70	-62.641282	-51.176120
73.80	-62.631418	-51.909519
73.90	-62.621555	-52.374320
74.00	-62.611443	-52.132273
74.10	-62.596088	-51.758672
74.20	-62.580734	-51.226702
74.30	-62.565379	-51.483011
74.40	-62.550025	-52.014814
74.50	-62.534670	-52.702268
74.60	-62.519316	-53.219233
74.70	-62.503961	-53.219606
74.80	-62.488607	-52.650791
74.90	-62.473252	-51.366417
75.00	-62.457898	-49.888918
75.10	-62.442543	-48.953612
75.20	-62.427189	-48.605708
75.30	-62.411834	-49.312008
75.40	-62.396480	-50.239830
75.50	-62.381125	-51.211681
75.60	-62.365771	-51.816231
75.70	-62.350416	-52.183079
75.80	-62.335062	-51.853643
75.90	-62.319707	-51.253829
76.00	-62.304353	-50.322393
76.10	-62.288999	-50.006233
76.20	-62.273644	-50.148068
76.30	-62.258290	-50.904030
76.40	-62.242935	-51.730034
76.50	-62.227581	-52.198726
76.60	-62.212226	-52.430100
76.70	-62.196872	-52.301723
76.80	-62.181517	-52.429143
76.90	-62.166163	-52.425709
77.00	-62.150808	-52.173896
77.10	-62.135454	-51.582224
77.20	-62.120099	-50.396274
77.30	-62.104745	-50.189733
77.40	-62.089390	-49.830941
77.50	-62.074036	-49.927495
77.60	-62.058681	-50.391787
77.70	-62.043327	-50.749291
77.80	-62.027972	-51.550443
77.90	-62.012618	-52.447392
78.00	-61.997263	-52.845704
78.10	-61.981909	-52.801366
78.20	-61.966554	-52.324684
78.30	-61.951200	-52.015364
78.40	-61.935845	-51.786941
78.50	-61.920491	-52.094824
78.60	-61.905136	-52.068294
78.70	-61.889782	-51.792467
78.80	-61.874427	-51.252771
78.90	-61.864546	-49.887025
79.00	-61.855078	-49.104395
79.10	-61.845609	-48.760519
79.20	-61.836141	-49.634463
79.30	-61.826672	-51.009427
79.40	-61.817204	-52.489399
79.50	-61.807736	-53.236299
79.60	-61.798267	-53.430997
79.70	-61.788799	-53.178359
79.80	-61.779330	-52.308450
79.90	-61.769862	-51.259986
80.00	-61.760393	-50.625890
80.10	-61.750925	-50.230660
80.20	-61.741456	-49.926221
80.30	-61.731988	-49.696719
80.40	-61.722519	-48.794536
80.50	-61.713051	-48.687516
80.60	-61.703583	-48.640019
80.70	-61.694114	-49.412819
80.80	-61.684646	-49.905213
80.90	-61.675177	-50.420550
81.00	-61.665709	-50.939169
81.10	-61.656240	-51.488659
81.20	-61.646772	-52.171933
81.30	-61.637303	-52.529747
81.40	-61.627835	-52.566551
81.50	-61.618366	-52.498896
81.60	-61.608898	-52.451596
81.70	-61.599430	-52.196732
81.80	-61.589961	-51.768832
81.90	-61.580493	-50.781386
82.00	-61.571024	-50.089608
82.10	-61.561556	-49.654525
82.20	-61.552087	-50.219230
82.30	-61.542619	-50.901567
82.40	-61.533150	-51.537872
82.50	-61.523682	-51.836620
82.60	-61.514213	-51.343808
82.70	-61.504745	-51.375983
82.80	-61.495277	-51.542820
82.90	-61.485808	-52.150553
83.00	-61.476340	-52.716911
83.10	-61.466871	-53.062383
83.20	-61.457403	-53.064791
83.30	-61.448283	-52.877599
83.40	-61.439830	-52.547465
83.50	-61.431378	-51.879228
83.60	-61.422925	-51.737255
83.70	-61.414472	-51.375461
83.80	-61.406019	-51.476048
83.90	-61.397566	-51.127920
84.00	-61.389113	-51.059306
84.10	-61.380661	-50.626851
84.20	-61.372208	-50.191997
84.30	-61.363755	-49.813954
84.40	-61.355302	-49.507538
84.50	-61.346849	-49.791736
84.60	-61.338396	-49.801826
84.70	-61.329944	-50.351734
84.80	-61.321491	-50.330294
84.90	-61.313038	-50.750291
85.00	-61.304585	-50.602344
85.10	-61.296132	-50.457172
85.20	-61.287679	-50.738269
85.30	-61.279227	-50.987976
85.40	-61.270774	-51.835874