# TStellate2_CS Optimisation
# 20130903+16:37:26
 
#param.w.x[lsr][ts] = 0.0017991	[1e-07,0.3]
#param.w.x[hsr][ts] = 0.0004908	[1e-07,0.3]
#param.w.x[ds][ts] = 7.3372e-05	[1e-07,0.3]
#param.w.x[tv][ts] = 0.00017319	[1e-07,0.3]
#param.w.x[glg][ts] = 8.9534e-06	[1e-07,0.3]
# final error=19.467655
# Threshold level 20 
# Threshold rate 500 
# TS exemplar RMP -60.9
# TS exemplar CF 9100
# CV RMS errors:	6.224	5.281	2.994	
# CV Penalties :	0	0	0	0	0	0.1283	0.3197	0	0	0	0	0.2054	0.2222	0	0	0	0	0	0	0.07291	0	
# IV RMS errors:	1.906	1.988	0.1259	
# IV Penalties :	
# Final Error  19.4677   19.4677
# Time	 IV @spl=20 (mV)	 IV @spl=30 (mV)	 IV @spl=40 (mV)
-20.00	-65.000000	-65.000000	-65.000000
-19.90	-64.766934	-64.766934	-64.766934
-19.80	-64.545736	-64.545736	-64.545736
-19.70	-64.335646	-64.335646	-64.335646
-19.60	-64.136115	-64.136115	-64.136115
-19.50	-63.946649	-63.946649	-63.946649
-19.40	-63.766647	-63.766647	-63.766647
-19.30	-63.595652	-63.595652	-63.595652
-19.20	-63.433250	-63.433250	-63.433250
-19.10	-63.279047	-63.279047	-63.279047
-19.00	-63.132590	-63.132590	-63.132590
-18.90	-62.993458	-62.993458	-62.993458
-18.80	-62.861308	-62.861308	-62.861308
-18.70	-62.735827	-62.735827	-62.735827
-18.60	-62.616717	-62.616717	-62.616717
-18.50	-62.503695	-62.503695	-62.503695
-18.40	-62.396372	-62.396372	-62.396372
-18.30	-62.294460	-62.294460	-62.294460
-18.20	-62.197712	-62.197712	-62.197712
-18.10	-62.105895	-62.105895	-62.105895
-18.00	-62.018788	-62.018788	-62.018788
-17.90	-61.936179	-61.936179	-61.936179
-17.80	-61.857864	-61.857864	-61.857874
-17.70	-61.783649	-61.783649	-61.783680
-17.60	-61.713277	-61.713277	-61.713334
-17.50	-61.646526	-61.646526	-61.646616
-17.40	-61.583227	-61.583227	-61.583354
-17.30	-61.523219	-61.523219	-61.523387
-17.20	-61.466349	-61.466349	-61.466561
-17.10	-61.401600	-61.412473	-61.401857
-17.00	-61.331979	-61.361448	-61.332283
-16.90	-61.270519	-61.313139	-61.270871
-16.80	-61.215665	-61.267416	-61.216064
-16.70	-61.144599	-61.224153	-61.166721
-16.60	-61.073899	-61.172400	-61.089480
-16.50	-60.993542	-61.115164	-61.003850
-16.40	-60.928655	-61.054628	-60.934691
-16.30	-60.832827	-60.992396	-60.878194
-16.20	-60.747979	-60.929652	-60.831568
-16.10	-60.682224	-60.878033	-60.739294
-16.00	-60.631009	-60.835049	-60.615192
-15.90	-60.558907	-60.755856	-60.490439
-15.80	-60.493795	-60.694340	-60.366355
-15.70	-60.413187	-60.635435	-60.243417
-15.60	-60.311781	-60.568515	-60.111706
-15.50	-60.228143	-60.485844	-59.995189
-15.40	-60.126460	-60.360938	-59.878399
-15.30	-60.033900	-60.259756	-59.762194
-15.20	-59.948940	-60.165593	-59.637884
-15.10	-59.881380	-60.067283	-59.506356
-15.00	-59.837447	-59.945781	-59.380529
-14.90	-59.768898	-59.798046	-59.239072
-14.80	-59.650987	-59.673732	-59.119744
-14.70	-59.562986	-59.526393	-59.017063
-14.60	-59.416695	-59.372727	-58.886134
-14.50	-59.279711	-59.194173	-58.787729
-14.40	-59.139911	-59.031015	-58.692958
-14.30	-59.050836	-58.890450	-58.572549
-14.20	-58.978062	-58.717879	-58.493048
-14.10	-58.907561	-58.561785	-58.400996
-14.00	-58.818641	-58.398330	-58.310201
-13.90	-58.716722	-58.261239	-58.220813
-13.80	-58.627661	-58.126220	-58.105179
-13.70	-58.507341	-58.025941	-57.970885
-13.60	-58.374366	-57.901298	-57.768917
-13.50	-58.239780	-57.780468	-57.540002
-13.40	-58.116233	-57.704729	-57.100567
-13.30	-57.963455	-57.653274	-56.544400
-13.20	-57.767416	-57.568570	-56.453433
-13.10	-57.575713	-57.522559	-56.728593
-13.00	-57.267924	-57.485855	-57.279245
-12.90	-56.641515	-57.424865	-57.620051
-12.80	-56.305110	-57.396245	-57.748121
-12.70	-56.252538	-57.391604	-57.803638
-12.60	-56.671798	-57.357168	-57.785926
-12.50	-57.210403	-57.298637	-57.718821
-12.40	-57.601266	-57.253367	-57.592821
-12.30	-57.762366	-57.204542	-57.490739
-12.20	-57.811134	-57.154054	-57.393693
-12.10	-57.758792	-57.112232	-57.305443
-12.00	-57.703516	-57.034292	-57.177417
-11.90	-57.647219	-56.980450	-57.018469
-11.80	-57.568294	-56.891811	-56.814356
-11.70	-57.479504	-56.829970	-56.414370
-11.60	-57.383313	-56.757176	-55.867601
-11.50	-57.268311	-56.705178	-55.810615
-11.40	-57.072396	-56.629791	-56.000491
-11.30	-56.536374	-56.584679	-56.584543
-11.20	-56.272371	-56.528385	-56.978449
-11.10	-56.256527	-56.462149	-57.178802
-11.00	-56.790706	-56.383383	-57.255057
-10.90	-57.335921	-56.291328	-57.242169
-10.80	-57.696362	-56.126222	-57.186579
-10.70	-57.868453	-55.826868	-57.089215
-10.60	-57.914840	-55.343712	-56.923566
-10.50	-57.894204	-55.373617	-56.654025
-10.40	-57.845015	-55.503423	-56.059702
-10.30	-57.759103	-56.091338	-55.841085
-10.20	-57.681122	-56.502049	-55.638914
-10.10	-57.588541	-56.772716	-55.871988
-10.00	-57.547549	-56.922043	-55.625811
-9.90	-57.524340	-57.025345	-55.570709
-9.80	-57.493534	-57.099896	-55.365185
-9.70	-57.479774	-57.120182	-56.064158
-9.60	-57.449004	-57.123493	-56.908987
-9.50	-57.445867	-57.105923	-57.806828
-9.40	-57.404016	-57.076699	-58.359420
-9.30	-57.341844	-57.076435	-58.700207
-9.20	-57.261659	-57.056277	-58.829529
-9.10	-57.208982	-57.005480	-58.879948
-9.00	-57.188668	-56.969163	-58.907380
-8.90	-57.161564	-56.973173	-58.903193
-8.80	-57.131706	-56.958983	-58.857870
-8.70	-57.100371	-56.897991	-58.786558
-8.60	-57.053689	-56.853830	-58.726283
-8.50	-57.020847	-56.822789	-58.655550
-8.40	-56.982769	-56.800891	-58.553663
-8.30	-56.959852	-56.784554	-58.450611
-8.20	-56.923428	-56.762450	-58.333220
-8.10	-56.860353	-56.771598	-58.219354
-8.00	-56.786345	-56.756454	-58.139029
-7.90	-56.647407	-56.766836	-58.051974
-7.80	-56.442616	-56.733852	-57.980563
-7.70	-55.912328	-56.705792	-57.920746
-7.60	-55.782044	-56.677633	-57.860431
-7.50	-55.748215	-56.652790	-57.775036
-7.40	-56.307496	-56.609489	-57.672060
-7.30	-56.823439	-56.515743	-57.575872
-7.20	-57.178528	-56.352580	-57.470766
-7.10	-57.353429	-56.067155	-57.386920
-7.00	-57.455508	-55.527170	-57.317287
-6.90	-57.495260	-54.700145	-57.236133
-6.80	-57.528659	-54.545159	-57.070899
-6.70	-57.531039	-54.859773	-56.685684
-6.60	-57.521828	-55.900807	-56.157449
-6.50	-57.514540	-56.786951	-56.149174
-6.40	-57.510789	-57.401443	-56.319163
-6.30	-57.520187	-57.766141	-56.878106
-6.20	-57.517541	-57.995393	-57.264986
-6.10	-57.536363	-58.125161	-57.410640
-6.00	-57.561071	-58.185428	-57.296760
-5.90	-57.601161	-58.201710	-56.786592
-5.80	-57.622154	-58.208242	-56.771691
-5.70	-57.615125	-58.197632	-56.785945
-5.60	-57.599241	-58.195485	-57.363460
-5.50	-57.585244	-58.129468	-57.846892
-5.40	-57.553586	-58.075442	-58.147675
-5.30	-57.487370	-57.989134	-58.311851
-5.20	-57.418812	-57.900966	-58.374024
-5.10	-57.378794	-57.839577	-58.365608
-5.00	-57.360217	-57.767671	-58.285929
-4.90	-57.316006	-57.695447	-58.228021
-4.80	-57.275919	-57.643807	-58.166462
-4.70	-57.259191	-57.577050	-58.112261
-4.60	-57.199798	-57.539139	-58.055002
-4.50	-57.137635	-57.470406	-57.994165
-4.40	-57.074311	-57.400473	-57.962611
-4.30	-57.041083	-57.329224	-57.900899
-4.20	-57.038660	-57.267216	-57.844904
-4.10	-56.972478	-57.201394	-57.783474
-4.00	-56.915129	-57.161553	-57.717709
-3.90	-56.846299	-57.120728	-57.657554
-3.80	-56.724102	-57.070421	-57.575839
-3.70	-56.635955	-56.974714	-57.490158
-3.60	-56.552226	-56.857366	-57.349056
-3.50	-56.461648	-56.661268	-57.192899
-3.40	-56.376489	-56.272998	-56.941763
-3.30	-56.314434	-55.739579	-56.352272
-3.20	-56.278567	-55.624029	-56.092883
-3.10	-56.224940	-55.656289	-56.011743
-3.00	-56.177219	-56.148160	-56.425413
-2.90	-56.130901	-56.336889	-56.898050
-2.80	-56.074180	-55.965982	-57.194822
-2.70	-56.028835	-56.026055	-57.322819
-2.60	-55.998153	-56.061744	-57.338457
-2.50	-55.994406	-56.605855	-57.278559
-2.40	-55.977783	-57.134137	-57.118441
-2.30	-55.908811	-57.459314	-56.735333
-2.20	-55.814248	-57.579724	-56.219546
-2.10	-55.585191	-57.623360	-56.199848
-2.00	-54.984470	-57.646874	-56.401631
-1.90	-54.981158	-57.636751	-57.014072
-1.80	-54.990233	-57.595435	-57.481674
-1.70	-55.622707	-57.553558	-57.750851
-1.60	-56.128996	-57.480205	-57.870521
-1.50	-56.439520	-57.421799	-57.915129
-1.40	-56.591704	-57.392248	-57.894686
-1.30	-56.617117	-57.333202	-57.879405
-1.20	-56.605920	-57.281292	-57.809636
-1.10	-56.604259	-57.194710	-57.727836
-1.00	-56.602175	-57.075750	-57.613019
-0.90	-56.592973	-56.962932	-57.506525
-0.80	-56.574930	-56.833660	-57.429955
-0.70	-56.509854	-56.699442	-57.342881
-0.60	-56.433493	-56.530815	-57.267026
-0.50	-56.347373	-56.145063	-57.182877
-0.40	-56.213312	-55.557362	-57.102988
-0.30	-56.017114	-55.473919	-56.983309
-0.20	-55.653855	-55.488966	-56.749586
-0.10	-54.851834	-56.097056	-56.223723
0.00	-54.165947	-56.575788	-55.918851
0.10	-54.094371	-56.868469	-55.855624
0.20	-54.584277	-56.979126	-56.205428
0.30	-55.623068	-57.030017	-56.644323
0.40	-56.426362	-57.046112	-56.846940
0.50	-56.953084	-57.044076	-56.677827
0.60	-57.236813	-57.060776	-56.369879
0.70	-57.393917	-57.060131	-56.360081
0.80	-57.501465	-57.060711	-56.565196
0.90	-57.532872	-57.079326	-57.035304
1.00	-57.547984	-57.098368	-57.347911
1.10	-57.563526	-57.127443	-57.519835
1.20	-57.564288	-57.095929	-57.623340
1.30	-57.560282	-57.057102	-57.644308
1.40	-57.515664	-56.975575	-57.570448
1.50	-57.492589	-56.887355	-57.359782
1.60	-57.484107	-56.794254	-56.865427
1.70	-57.486403	-56.692177	-56.581446
1.80	-57.486763	-56.549660	-56.517088
1.90	-57.505247	-56.387666	-56.943706
2.00	-57.496131	-56.117252	-57.431422
2.10	-57.485517	-55.563908	-57.690150
2.20	-57.465107	-55.212126	-57.793863
2.30	-57.462040	-54.919387	-57.783008
2.40	-57.468750	-54.660838	-57.728734
2.50	-57.465551	-55.076909	-57.690111
2.60	-57.470751	-55.338041	-57.602899
2.70	-57.471124	-56.068013	-57.553563
2.80	-57.487641	-56.519533	-57.517878
2.90	-57.487572	-56.465776	-57.484692
3.00	-57.452769	-56.426215	-57.440986
3.10	-57.421717	-56.519037	-57.394128
3.20	-57.411809	-57.035224	-57.313981
3.30	-57.376238	-57.591687	-57.201221
3.40	-57.307320	-57.954508	-57.066912
3.50	-57.240560	-58.149871	-56.906914
3.60	-57.127187	-58.243902	-56.553411
3.70	-57.016481	-58.279693	-56.003089
3.80	-56.881639	-58.269843	-55.941261
3.90	-56.653341	-58.254733	-55.915963
4.00	-56.217148	-58.215402	-56.570212
4.10	-55.871027	-58.189528	-56.966464
4.20	-55.810313	-58.154396	-57.242743
4.30	-56.074174	-58.112005	-57.384674
4.40	-56.471411	-58.024811	-57.421925
4.50	-56.583436	-57.957378	-57.420538
4.60	-56.194800	-57.872234	-57.405957
4.70	-56.319980	-57.784353	-57.395504
4.80	-56.364733	-57.695809	-57.388608
4.90	-57.000780	-57.609790	-57.383449
5.00	-57.524295	-57.566352	-57.359509
5.10	-57.867712	-57.523515	-57.301935
5.20	-58.051793	-57.492210	-57.260574
5.30	-58.133536	-57.459296	-57.259192
5.40	-58.091830	-57.424663	-57.259268
5.50	-58.039148	-57.389389	-57.290095
5.60	-57.979972	-57.317293	-57.334142
5.70	-57.897315	-57.287313	-57.329467
5.80	-57.817909	-57.247439	-57.327701
5.90	-57.761415	-57.211001	-57.349467
6.00	-57.636435	-57.186709	-57.268334
6.10	-57.547050	-57.091935	-56.933196
6.20	-57.450278	-56.932908	-56.507172
6.30	-57.338740	-56.701481	-55.860479
6.40	-57.227436	-56.229919	-55.065477
6.50	-57.005651	-55.522063	-54.043197
6.60	-56.749991	-54.707053	-52.727277
6.70	-56.414031	-53.805114	-50.871417
6.80	-55.931912	-52.627616	-48.256691
6.90	-55.251349	-50.890923	-45.443353
7.00	-54.158410	-48.439080	-40.742804
7.10	-52.346926	-45.824906	-34.887557
7.20	-50.887180	-41.828299	-29.548307
7.30	-49.118432	-35.734272	-25.825153
7.40	-47.201642	-29.970221	-28.780864
7.50	-43.678773	-25.026070	-34.562797
7.60	-38.775942	-27.726951	-43.521410
7.70	-32.989889	-33.913107	-51.269235
7.80	-29.615910	-43.200873	-56.488902
7.90	-28.673715	-51.382093	-59.667978
8.00	-33.301217	-56.763732	-61.269062
8.10	-39.679289	-60.042276	-61.834238
8.20	-46.832608	-61.654548	-61.837078
8.30	-53.281745	-62.341534	-61.584943
8.40	-57.136740	-62.329542	-61.178530
8.50	-59.538292	-61.978445	-60.640209
8.60	-60.517239	-61.548872	-60.035034
8.70	-60.823884	-60.988582	-59.535908
8.80	-60.792038	-60.413880	-58.819157
8.90	-60.667609	-59.921507	-58.092749
9.00	-60.528032	-59.355743	-57.167995
9.10	-60.431567	-58.706624	-56.134947
9.20	-60.293423	-58.001201	-54.994608
9.30	-60.057244	-57.354856	-53.481139
9.40	-59.697944	-56.648054	-51.839282
9.50	-59.347538	-55.494846	-50.212573
9.60	-58.958608	-53.881058	-48.771129
9.70	-58.688533	-52.768677	-46.681294
9.80	-58.349601	-51.298851	-45.071102
9.90	-57.741693	-49.945186	-43.885292
10.00	-56.990422	-48.273893	-43.187996
10.10	-56.224645	-46.122871	-43.680104
10.20	-55.354068	-44.064029	-42.704225
10.30	-54.252463	-42.191493	-41.962526
10.40	-52.968841	-39.576832	-42.207742
10.50	-51.976666	-38.742113	-43.954360
10.60	-50.751757	-39.407190	-45.825490
10.70	-49.686380	-41.673247	-47.936270
10.80	-47.365921	-44.743656	-48.031396
10.90	-46.382293	-47.545950	-48.415617
11.00	-44.322032	-48.741350	-50.013763
11.10	-42.730682	-50.460971	-51.405337
11.20	-39.872364	-51.867522	-53.266156
11.30	-38.271258	-53.172214	-54.853191
11.40	-38.755385	-54.328639	-55.452903
11.50	-42.213788	-54.409108	-55.966738
11.60	-47.108781	-54.175184	-55.945714
11.70	-51.081971	-54.575109	-55.715036
11.80	-52.671704	-54.481277	-55.117099
11.90	-52.430019	-54.978277	-53.970506
12.00	-52.133528	-55.259319	-52.288381
12.10	-52.478304	-54.632072	-50.590673
12.20	-52.877050	-54.055912	-48.545568
12.30	-53.186444	-53.379012	-47.692259
12.40	-53.466289	-52.953354	-47.258676
12.50	-54.207229	-52.306219	-46.751285
12.60	-55.258105	-50.513481	-45.610439
12.70	-56.173532	-48.647948	-44.134249
12.80	-56.274464	-46.604483	-42.356632
12.90	-55.857432	-46.235666	-42.664592
13.00	-55.547336	-46.136409	-43.309225
13.10	-55.197040	-46.890114	-45.740928
13.20	-55.142311	-46.796141	-47.607327
13.30	-54.718513	-46.371558	-49.534444
13.40	-53.628436	-46.347846	-50.065940
13.50	-52.471149	-46.572398	-50.559204
13.60	-51.153271	-47.527502	-49.537961
13.70	-50.268928	-48.181118	-48.975538
13.80	-49.831764	-48.952376	-47.961193
13.90	-49.211430	-48.095498	-47.822730
14.00	-49.200107	-48.406632	-48.364052
14.10	-47.890741	-48.343093	-49.657316
14.20	-47.127918	-49.130871	-51.377360
14.30	-45.797508	-50.792496	-52.989414
14.40	-44.807421	-51.417197	-54.246625
14.50	-44.558940	-52.623580	-54.687069
14.60	-44.339325	-53.654349	-54.520781
14.70	-45.652199	-54.774579	-53.791490
14.80	-47.594581	-55.742267	-52.517999
14.90	-50.272408	-55.998048	-51.196674
15.00	-52.001657	-55.632559	-49.144111
15.10	-53.481733	-54.610059	-48.228508
15.20	-53.485578	-53.713709	-47.200650
15.30	-53.579835	-52.483284	-46.510631
15.40	-53.893691	-51.511560	-45.432339
15.50	-54.254175	-50.826238	-44.721418
15.60	-54.548577	-49.957582	-45.057926
15.70	-53.258422	-50.437968	-45.805698
15.80	-52.616394	-50.160858	-46.960682
15.90	-51.771980	-50.735346	-47.375911
16.00	-51.295319	-51.023735	-45.721974
16.10	-52.156107	-50.338016	-46.466950
16.20	-52.254154	-49.715066	-47.134914
16.30	-53.389462	-48.659685	-49.207454
16.40	-54.270362	-48.673123	-51.058263
16.50	-55.037851	-49.098013	-51.284725
16.60	-55.399098	-49.677054	-50.346192
16.70	-55.237266	-48.930301	-48.757167
16.80	-54.643441	-47.343866	-47.379519
16.90	-53.396596	-45.192657	-46.524312
17.00	-52.174689	-43.459314	-47.930443
17.10	-50.284860	-42.889236	-49.789672
17.20	-48.759515	-43.839270	-52.469958
17.30	-48.256011	-45.273876	-53.837260
17.40	-48.143271	-48.846324	-53.610770
17.50	-49.148884	-51.529224	-52.864819
17.60	-49.383466	-54.163619	-52.518982
17.70	-49.169481	-55.582595	-52.265564
17.80	-47.968085	-55.882617	-52.232480
17.90	-47.461636	-55.490932	-51.194828
18.00	-46.932296	-55.209506	-50.395927
18.10	-47.230405	-54.830493	-49.226630
18.20	-47.351830	-54.043526	-48.098588
18.30	-46.624582	-53.203643	-46.435271
18.40	-46.169935	-52.562309	-43.478016
18.50	-46.711997	-51.899082	-42.904165
18.60	-48.265763	-51.841290	-43.951040
18.70	-50.411707	-51.901464	-47.042012
18.80	-52.247997	-51.898463	-50.070327
18.90	-53.356924	-51.547154	-51.580112
19.00	-54.346483	-50.856436	-51.392479
19.10	-54.770932	-50.091810	-50.228647
19.20	-54.485178	-49.825746	-48.078477
19.30	-54.319560	-50.184845	-46.744789
19.40	-53.641448	-50.590048	-45.480523
19.50	-53.049132	-51.314798	-46.102911
19.60	-52.466819	-51.059739	-47.136375
19.70	-51.257010	-51.017857	-48.120096
19.80	-51.162043	-50.574504	-48.520958
19.90	-50.389601	-50.437899	-48.408413
20.00	-50.477845	-49.702550	-49.632759
20.10	-50.437472	-48.884121	-51.041153
20.20	-49.698799	-48.924555	-52.523123
20.30	-50.205542	-49.219743	-53.225730
20.40	-50.116213	-50.351033	-52.847986
20.50	-51.027000	-50.874693	-52.234483
20.60	-51.077368	-49.964972	-50.866412
20.70	-51.530497	-50.530058	-49.659457
20.80	-50.966753	-50.636119	-48.725490
20.90	-50.316681	-50.898227	-48.834770
21.00	-50.137717	-51.546294	-49.105811
21.10	-49.958051	-51.753937	-49.899189
21.20	-49.417752	-52.575218	-49.687041
21.30	-49.765417	-53.144183	-49.628064
21.40	-49.620567	-53.114525	-48.369842
21.50	-50.502878	-52.608098	-48.071617
21.60	-50.752964	-52.070163	-47.752199
21.70	-51.282263	-51.772782	-49.208957
21.80	-51.793722	-51.994856	-50.769831
21.90	-52.888832	-51.750241	-52.497362
22.00	-53.834697	-51.444663	-53.251187
22.10	-53.891681	-50.498675	-53.158918
22.20	-53.471992	-49.733865	-52.065279
22.30	-52.798268	-48.598376	-50.817243
22.40	-52.009966	-47.762953	-48.703821
22.50	-51.149353	-46.328910	-46.519956
22.60	-50.342665	-44.847723	-45.036623
22.70	-49.365817	-41.971223	-44.987706
22.80	-49.123103	-42.268819	-45.700687
22.90	-48.857430	-43.476824	-46.631460
23.00	-48.783401	-46.104362	-48.069775
23.10	-49.154093	-48.897703	-48.294832
23.20	-47.988425	-51.506173	-49.953204
23.30	-48.093816	-53.562269	-51.077380
23.40	-48.145686	-55.479152	-52.264892
23.50	-49.564973	-56.371000	-52.485074
23.60	-51.091326	-56.348396	-52.430843
23.70	-52.259406	-55.981565	-52.325031
23.80	-52.633826	-55.464335	-52.320740
23.90	-53.306922	-55.006879	-52.844595
24.00	-53.780385	-54.019028	-52.782868
24.10	-53.995192	-52.388436	-51.858911
24.20	-54.034318	-52.054049	-51.061777
24.30	-53.771797	-51.857977	-50.732975
24.40	-53.764358	-52.625410	-51.224914
24.50	-53.287570	-52.798285	-52.272682
24.60	-53.221166	-51.317336	-52.410312
24.70	-52.906914	-50.908666	-51.805049
24.80	-53.087125	-50.313953	-50.186668
24.90	-53.683600	-50.980196	-48.496849
25.00	-54.369982	-50.925577	-48.056625
25.10	-54.652491	-50.390960	-47.865678
25.20	-53.694267	-49.756963	-48.856890
25.30	-53.521774	-48.816984	-49.128483
25.40	-53.049394	-48.193766	-48.481262
25.50	-53.561637	-47.786325	-46.958967
25.60	-53.612851	-47.689224	-46.161712
25.70	-52.735922	-47.276042	-45.521038
25.80	-51.485684	-47.540803	-45.996408
25.90	-50.414990	-47.705679	-47.743370
26.00	-48.895242	-48.266953	-49.065757
26.10	-48.808238	-49.571832	-50.297134
26.20	-47.822855	-50.550908	-50.455097
26.30	-47.145310	-50.694418	-49.486726
26.40	-46.499683	-50.224594	-49.555333
26.50	-46.721937	-49.705553	-50.136405
26.60	-48.069073	-49.012493	-50.851334
26.70	-49.654267	-50.192733	-52.558401
26.80	-51.586883	-51.340262	-53.480036
26.90	-53.094185	-53.138455	-54.597740
27.00	-53.590132	-54.214916	-54.702928
27.10	-53.065516	-54.145631	-54.632719
27.20	-51.607537	-53.037477	-53.894778
27.30	-50.490907	-51.363319	-53.886741
27.40	-49.889563	-50.794495	-53.522628
27.50	-50.877360	-50.859548	-53.390002
27.60	-52.140479	-52.290691	-53.250821
27.70	-53.172679	-53.275867	-53.151838
27.80	-53.601925	-53.387436	-52.870549
27.90	-53.624369	-52.897155	-51.944256
28.00	-53.599065	-52.332367	-50.852431
28.10	-53.795474	-51.356961	-49.008662
28.20	-53.697221	-50.961553	-47.268268
28.30	-54.002677	-49.655821	-45.472737
28.40	-53.604289	-48.457558	-43.640699
28.50	-53.997227	-47.920205	-43.682947
28.60	-54.133054	-47.854260	-44.832328
28.70	-54.541556	-48.447767	-46.197405
28.80	-54.536136	-48.305416	-46.774355
28.90	-53.856533	-47.905833	-46.575539
29.00	-52.330755	-48.746403	-47.089401
29.10	-50.986537	-49.561236	-48.323187
29.20	-50.118424	-51.007478	-49.618991
29.30	-50.887133	-51.532556	-49.573421
29.40	-51.647249	-51.920711	-48.279802
29.50	-52.160881	-52.080158	-47.569051
29.60	-52.356930	-52.134708	-46.701349
29.70	-52.662880	-52.003253	-47.849951
29.80	-53.016138	-51.165003	-49.159364
29.90	-53.250838	-50.682710	-50.880845
30.00	-52.228743	-48.880822	-52.644741
30.10	-51.489823	-47.104911	-53.921654
30.20	-50.605944	-46.519561	-54.354187
30.30	-50.699824	-46.369584	-53.615740
30.40	-50.246178	-48.284852	-53.513250
30.50	-50.729656	-50.212550	-53.083616
30.60	-50.780383	-52.587496	-53.624646
30.70	-50.784671	-54.435209	-53.439601
30.80	-50.402177	-55.808292	-52.615215
30.90	-49.093410	-56.364135	-52.101996
31.00	-48.812476	-56.035564	-51.676411
31.10	-48.646190	-55.345988	-51.620259
31.20	-49.385309	-54.834949	-50.813391
31.30	-50.390608	-54.104666	-49.688949
31.40	-50.932536	-53.343666	-48.577421
31.50	-50.724146	-51.752042	-47.731733
31.60	-49.499295	-50.462317	-46.356511
31.70	-47.528025	-49.355764	-45.993210
31.80	-46.643457	-48.870596	-45.242506
31.90	-47.425870	-49.561236	-44.779936
32.00	-48.738618	-49.433667	-45.706596
32.10	-50.736649	-49.800746	-46.373354
32.20	-52.029329	-48.875595	-48.022321
32.30	-52.591972	-47.917842	-49.389424
32.40	-53.198501	-47.080266	-51.111256
32.50	-53.192512	-47.957514	-52.390046
32.60	-53.469382	-49.461679	-53.226400
32.70	-54.081642	-51.182412	-52.667982
32.80	-54.493564	-52.789985	-52.514006
32.90	-54.872908	-53.620940	-52.383568
33.00	-54.472383	-53.928828	-52.847317
33.10	-53.888827	-53.359468	-53.348583
33.20	-53.754285	-52.218498	-53.420366
33.30	-53.805327	-51.329542	-52.932492
33.40	-53.974895	-51.163968	-51.299569
33.50	-53.487494	-50.739648	-50.221402
33.60	-52.727135	-50.991867	-49.559555
33.70	-50.252390	-50.824778	-49.928194
33.80	-49.514460	-50.802653	-50.251114
33.90	-48.667427	-49.954272	-50.978633
34.00	-49.579901	-50.045779	-50.506197
34.10	-51.374847	-50.109131	-50.000829
34.20	-53.168859	-51.337120	-49.061387
34.30	-54.467401	-52.662370	-47.741375
34.40	-54.863243	-53.360393	-46.491888
34.50	-54.284220	-53.349195	-45.911197
34.60	-53.884837	-53.224095	-45.818724
34.70	-53.153356	-51.817095	-45.481457
34.80	-52.585812	-51.780558	-46.731779
34.90	-50.776121	-51.411261	-47.953488
35.00	-49.603048	-51.587898	-50.484832
35.10	-48.614243	-51.117325	-52.293694
35.20	-48.600372	-50.047145	-52.855922
35.30	-49.326557	-48.734834	-53.072521
35.40	-49.008277	-48.048676	-52.984919
35.50	-48.803285	-48.141074	-52.767857
35.60	-49.129583	-48.343685	-53.113541
35.70	-50.133374	-48.814255	-52.680187
35.80	-51.802543	-48.106429	-51.814416
35.90	-53.159572	-49.299856	-50.353968
36.00	-54.279899	-50.401319	-49.740530
36.10	-54.801114	-52.602655	-48.992965
36.20	-55.438484	-54.162828	-49.757726
36.30	-55.555988	-54.376456	-49.498581
36.40	-55.920852	-54.287590	-49.075584
36.50	-55.834312	-54.286709	-48.185486
36.60	-55.471702	-54.431365	-47.552955
36.70	-54.688359	-54.789780	-48.099743
36.80	-53.304879	-54.128309	-48.026109
36.90	-50.993634	-53.078843	-48.092931
37.00	-49.168936	-52.348404	-46.984514
37.10	-47.913203	-51.385757	-45.351010
37.20	-47.768885	-51.502649	-45.725809
37.30	-49.029937	-50.773465	-46.516131
37.40	-50.038435	-50.098453	-48.628415
37.50	-50.517322	-49.479015	-50.254110
37.60	-51.071313	-49.911176	-51.203417
37.70	-51.089311	-50.951876	-52.148186
37.80	-50.731316	-51.671201	-52.625198
37.90	-51.390299	-51.119682	-53.203820
38.00	-51.473752	-50.752307	-53.515726
38.10	-51.655532	-50.396338	-54.051263
38.20	-51.138170	-51.347487	-54.710555
38.30	-49.860433	-53.155930	-54.990403
38.40	-49.776400	-54.765253	-54.763987
38.50	-49.229494	-55.916695	-53.820913
38.60	-49.391693	-56.302787	-53.329535
38.70	-50.080083	-56.153291	-52.532224
38.80	-50.867639	-55.435814	-51.634306
38.90	-51.806469	-54.711999	-50.441902
39.00	-52.926540	-54.213639	-49.165774
39.10	-53.130988	-53.938460	-48.530902
39.20	-53.318106	-53.781009	-47.211297
39.30	-53.395118	-53.226019	-46.515937
39.40	-53.188386	-52.162811	-45.892926
39.50	-52.192454	-49.933345	-45.408711
39.60	-50.665687	-47.099003	-46.580572
39.70	-49.732513	-45.313499	-47.072458
39.80	-49.013113	-43.852348	-48.517250
39.90	-50.544411	-43.896124	-49.448070
40.00	-52.087091	-44.566585	-50.863472
40.10	-53.857739	-45.224499	-51.260797
40.20	-54.891595	-46.906647	-50.664088
40.30	-54.654220	-48.513144	-50.356310
40.40	-54.540389	-49.726921	-49.026156
40.50	-54.447119	-50.359950	-49.867280
40.60	-55.035148	-50.017607	-50.838174
40.70	-55.777514	-50.094209	-51.474194
40.80	-56.132511	-50.301902	-51.871554
40.90	-55.973205	-51.359544	-50.496057
41.00	-55.298201	-52.321235	-49.563087
41.10	-53.750130	-53.079419	-49.541044
41.20	-52.272591	-53.934064	-50.824936
41.30	-51.428178	-54.137166	-53.030270
41.40	-50.936975	-54.266559	-54.731981
41.50	-50.203328	-53.482275	-55.580617
41.60	-48.378002	-52.105296	-55.563265
41.70	-47.258135	-51.463595	-54.742811
41.80	-46.544923	-51.173401	-54.043638
41.90	-46.923520	-52.139425	-52.677604
42.00	-46.738098	-52.797519	-52.423308
42.10	-46.989333	-52.908308	-52.345709
42.20	-46.650411	-52.263613	-52.733593
42.30	-47.493517	-51.908155	-52.900483
42.40	-48.559744	-51.523368	-52.281706
42.50	-49.500653	-51.095234	-50.257464
42.60	-50.680696	-49.939284	-46.790366
42.70	-51.859056	-49.123459	-44.637724
42.80	-52.616541	-49.153801	-43.292703
42.90	-53.674046	-49.617236	-44.845044
43.00	-53.714067	-50.419611	-46.448753
43.10	-53.468536	-50.339625	-48.689638
43.20	-53.931634	-51.074859	-48.756324
43.30	-54.195192	-51.563037	-48.682730
43.40	-54.725684	-51.890767	-47.699344
43.50	-54.748509	-52.201842	-46.569010
43.60	-54.241334	-51.630303	-46.581564
43.70	-53.940491	-50.746539	-46.781060
43.80	-53.801208	-49.599168	-48.893879
43.90	-53.257764	-49.685331	-50.566474
44.00	-52.620156	-50.035879	-52.022555
44.10	-51.810487	-50.913129	-52.655727
44.20	-51.168350	-50.491268	-52.484821
44.30	-51.447805	-49.911730	-53.020313
44.40	-52.429508	-49.637692	-53.653102
44.50	-53.646231	-50.231605	-54.709138
44.60	-54.565028	-50.593991	-55.080900
44.70	-55.296173	-49.357899	-54.831920
44.80	-55.455891	-49.165385	-53.748577
44.90	-55.760647	-48.454735	-52.678915
45.00	-55.663932	-50.140251	-50.892747
45.10	-55.301691	-51.179596	-49.930378
45.20	-54.441645	-52.446856	-48.243350
45.30	-53.075496	-53.443066	-47.639879
45.40	-52.047590	-54.215962	-47.095972
45.50	-51.381528	-54.669307	-47.985604
45.60	-51.022854	-54.901381	-48.006330
45.70	-50.869959	-54.952292	-48.124325
45.80	-50.066731	-54.717044	-48.486595
45.90	-49.145587	-54.050606	-48.727276
46.00	-47.106939	-52.492679	-48.808693
46.10	-46.682423	-50.803469	-48.763570
46.20	-46.763053	-49.816345	-47.805067
46.30	-48.540294	-49.482067	-47.929186
46.40	-51.022911	-50.401036	-47.735533
46.50	-53.168414	-50.899297	-48.205291
46.60	-54.698548	-49.744750	-48.728740
46.70	-55.141959	-48.451398	-49.189212
46.80	-54.954923	-48.256743	-50.077315
46.90	-54.792283	-48.791115	-51.434654
47.00	-54.384385	-50.161015	-52.512999
47.10	-53.901760	-50.938684	-52.976045
47.20	-53.322640	-51.599800	-52.542721
47.30	-52.300934	-51.142933	-51.305066
47.40	-51.506868	-50.762830	-51.599452
47.50	-51.108446	-51.319800	-51.744325
47.60	-51.393513	-51.534563	-52.934129
47.70	-51.955131	-51.803422	-54.033488
47.80	-51.802811	-52.876485	-54.501620
47.90	-51.095634	-53.299053	-54.805940
48.00	-50.503574	-54.207301	-54.208894
48.10	-50.211129	-54.706754	-53.353465
48.20	-49.598816	-54.265012	-52.896235
48.30	-48.846707	-53.968890	-52.600374
48.40	-48.682137	-53.020310	-52.326819
48.50	-49.257743	-52.189224	-51.577341
48.60	-51.036529	-51.753784	-51.018852
48.70	-53.286457	-51.240912	-50.443856
48.80	-54.742772	-50.500658	-49.888089
48.90	-55.454256	-49.829903	-49.765976
49.00	-55.283727	-48.799938	-49.246699
49.10	-55.206023	-47.985884	-48.352889
49.20	-54.796800	-48.122911	-46.933042
49.30	-54.792719	-48.064609	-45.517642
49.40	-53.783456	-49.477064	-44.838078
49.50	-52.779107	-50.657648	-45.290815
49.60	-51.532954	-51.946524	-45.598667
49.70	-51.109168	-53.296461	-46.491685
49.80	-51.375897	-53.857954	-46.930648
49.90	-52.324269	-53.839494	-47.007996
50.00	-53.005225	-54.110102	-47.871994
50.10	-53.128453	-54.127975	-48.845911
50.20	-53.087424	-54.316766	-50.870606
50.30	-52.410952	-54.074342	-52.562370
50.40	-51.165991	-53.081319	-54.441049
50.50	-49.596484	-51.769606	-55.338641
50.60	-49.038265	-49.341944	-56.089505
50.70	-49.745504	-48.132019	-56.050920
50.80	-51.618287	-47.383291	-55.208673
50.90	-53.523390	-48.077710	-54.416679
51.00	-54.474046	-48.649491	-52.757290
51.10	-54.470893	-48.882866	-52.401965
51.20	-53.303868	-48.703503	-51.734959
51.30	-52.973647	-49.194390	-52.289297
51.40	-52.372244	-50.086512	-52.386496
51.50	-52.606802	-50.786371	-53.161050
51.60	-52.360924	-51.602928	-53.404369
51.70	-52.018708	-52.152035	-53.697928
51.80	-50.952387	-52.570377	-52.936216
51.90	-50.451235	-53.361440	-52.121906
52.00	-48.814737	-54.221976	-51.348557
52.10	-47.014569	-54.798105	-50.331863
52.20	-46.942929	-54.946665	-49.773323
52.30	-46.848554	-54.809666	-49.998345
52.40	-48.086452	-53.968325	-50.335338
52.50	-50.039778	-53.129014	-51.181584
52.60	-51.521699	-53.269058	-50.651358
52.70	-53.559752	-53.478818	-49.701340
52.80	-54.703506	-54.002506	-48.857821
52.90	-54.688687	-53.843696	-48.000838
53.00	-53.900829	-52.734137	-48.544198
53.10	-53.729070	-51.586429	-48.445870
53.20	-53.422848	-50.116303	-48.849529
53.30	-53.702960	-49.221484	-48.079476
53.40	-53.714136	-49.020362	-47.603352
53.50	-53.378735	-48.932310	-46.161348
53.60	-52.407000	-49.511473	-44.360553
53.70	-51.692550	-50.231214	-44.708615
53.80	-50.991684	-50.522370	-46.013289
53.90	-50.998632	-50.163435	-49.120179
54.00	-51.028652	-50.086822	-51.596559
54.10	-51.322497	-50.063675	-53.247844
54.20	-51.225323	-49.979506	-53.081827
54.30	-51.596630	-49.038790	-53.628166
54.40	-52.278875	-48.672678	-53.564801
54.50	-52.761848	-48.468692	-54.384633
54.60	-53.470396	-49.751192	-55.265550
54.70	-53.824202	-51.897005	-55.933853
54.80	-53.620136	-52.900004	-56.310290
54.90	-52.696819	-53.624584	-56.213608
55.00	-52.505475	-53.957157	-55.735576
55.10	-51.780311	-53.287378	-54.763935