# TStellate2_CT2 Optimisation
# 20130824+12:26:00
 
#param.w.x[lsr][ts] = 0.0011116	[1e-07,0.3]
#param.w.x[hsr][ts] = 0.0012699	[1e-07,0.3]
#param.w.x[ds][ts] = 0.00041157	[1e-07,0.3]
#param.w.x[tv][ts] = 0.00015319	[1e-07,0.3]
#param.w.x[glg][ts] = 0.00038271	[1e-07,0.3]
# final error=218.381609
# Threshold level 20 
# Threshold rate 850 
# TS exemplar RMP -60.9
# TS exemplar CF 9100
# CV RMS errors:	
# Penalties :	
# IV RMS errors:	
# IV Penalties :	
# Final Error  218.382   218.382
# Time	 IV @spl=20 (mV)	 IV @spl=30 (mV)	 IV @spl=40 (mV)
-20.00	-65.000000	-65.000000	-65.000000
-19.90	-64.869248	-64.869248	-64.869248
-19.80	-64.745181	-64.745181	-64.745181
-19.70	-64.627368	-64.627368	-64.627368
-19.60	-64.515507	-64.515507	-64.515507
-19.50	-64.409324	-64.409324	-64.409324
-19.40	-64.308557	-64.308557	-64.308557
-19.30	-64.212957	-64.212957	-64.212957
-19.20	-64.122281	-64.122281	-64.122281
-19.10	-64.036293	-64.036293	-64.036293
-19.00	-63.954716	-63.954716	-63.954716
-18.90	-63.877337	-63.877337	-63.877337
-18.80	-63.803956	-63.803956	-63.803956
-18.70	-63.734384	-63.734384	-63.734384
-18.60	-63.668439	-63.668439	-63.668439
-18.50	-63.605948	-63.605948	-63.605948
-18.40	-63.546743	-63.546743	-63.546743
-18.30	-63.490665	-63.490665	-63.490665
-18.20	-63.437561	-63.437561	-63.437561
-18.10	-63.387285	-63.387285	-63.387285
-18.00	-63.339696	-63.339696	-63.339696
-17.90	-63.294636	-63.294636	-63.294636
-17.80	-63.251959	-63.251959	-63.251959
-17.70	-63.211544	-63.211544	-63.211544
-17.60	-63.173277	-63.173277	-63.173277
-17.50	-63.137050	-63.137050	-63.137050
-17.40	-63.102759	-63.102759	-63.102759
-17.30	-63.070307	-63.045078	-63.070307
-17.20	-63.039599	-62.996622	-63.039599
-17.10	-62.981774	-62.955286	-63.010547
-17.00	-62.905308	-62.919548	-62.954304
-16.90	-62.816353	-62.888283	-62.879347
-16.80	-62.748145	-62.831915	-62.820561
-16.70	-62.670298	-62.758345	-62.773903
-16.60	-62.582936	-62.702007	-62.651186
-16.50	-62.518522	-62.658546	-62.532101
-16.40	-62.442540	-62.624834	-62.416534
-16.30	-62.330608	-62.569882	-62.333315
-16.20	-62.196164	-62.529165	-62.217788
-16.10	-62.044822	-62.385185	-62.109085
-16.00	-61.854198	-62.257724	-62.033956
-15.90	-61.694872	-62.111897	-61.841555
-15.80	-61.503303	-61.871530	-61.652518
-15.70	-61.320311	-61.676715	-61.354693
-15.60	-61.060029	-61.430441	-61.044096
-15.50	-60.859281	-61.207431	-60.780793
-15.40	-60.675944	-61.029676	-60.497133
-15.30	-60.507662	-60.885221	-60.253459
-15.20	-60.404671	-60.738239	-60.066807
-15.10	-60.263900	-60.591899	-59.865204
-15.00	-60.072645	-60.421906	-59.685184
-14.90	-59.737295	-60.230441	-59.412059
-14.80	-59.436887	-60.001259	-59.128260
-14.70	-59.164458	-59.768894	-58.822495
-14.60	-58.883151	-59.536107	-58.522682
-14.50	-58.568998	-59.270476	-58.240142
-14.40	-58.228765	-59.067719	-57.928968
-14.30	-57.931647	-58.780295	-57.545832
-14.20	-57.639882	-58.513395	-56.853441
-14.10	-57.370636	-58.244457	-55.841283
-14.00	-56.988147	-57.876849	-55.152044
-13.90	-56.206501	-57.495250	-54.586167
-13.80	-54.174021	-57.059686	-54.642399
-13.70	-53.532119	-56.377793	-54.854218
-13.60	-53.360419	-55.087178	-55.682311
-13.50	-54.548077	-54.041329	-56.151894
-13.40	-56.006842	-53.050191	-56.907739
-13.30	-56.889172	-52.391867	-57.281760
-13.20	-56.629311	-53.113739	-57.388027
-13.10	-56.547893	-53.766092	-57.153437
-13.00	-56.202049	-55.201828	-56.577775
-12.90	-55.959619	-56.454158	-55.635163
-12.80	-56.335452	-57.521426	-54.836737
-12.70	-56.499098	-58.102042	-53.871849
-12.60	-57.053196	-58.393466	-54.429343
-12.50	-57.477871	-58.377095	-55.013427
-12.40	-57.619999	-58.315314	-56.414088
-12.30	-57.461933	-58.246945	-57.479838
-12.20	-57.180225	-58.133547	-58.034893
-12.10	-56.759536	-57.905335	-58.133266
-12.00	-56.174464	-57.686197	-57.997090
-11.90	-54.986108	-57.261529	-57.438724
-11.80	-53.726170	-56.638374	-56.695308
-11.70	-51.823055	-55.351125	-56.056802
-11.60	-51.163092	-55.046114	-56.393571
-11.50	-50.574049	-55.013214	-56.981924
-11.40	-51.842818	-56.134427	-57.886700
-11.30	-52.926766	-57.129364	-58.455477
-11.20	-53.207370	-57.670991	-58.727857
-11.10	-53.966805	-57.804440	-58.811430
-11.00	-53.739618	-57.675403	-58.760984
-10.90	-54.425511	-57.025921	-58.618611
-10.80	-55.410054	-56.768564	-58.392463
-10.70	-56.504507	-56.658758	-57.998449
-10.60	-57.761955	-56.987306	-57.312956
-10.50	-58.250743	-57.222709	-57.093617
-10.40	-58.122916	-57.022040	-56.844382
-10.30	-57.553009	-56.247942	-57.226762
-10.20	-58.086993	-55.529502	-57.403855
-10.10	-58.655588	-55.171504	-57.253521
-10.00	-59.611533	-55.151979	-56.616804
-9.90	-60.197697	-56.096612	-56.094759
-9.80	-60.554664	-56.761808	-55.681158
-9.70	-60.677833	-57.752080	-55.368460
-9.60	-60.597159	-58.314320	-55.396417
-9.50	-60.396012	-58.601982	-55.224522
-9.40	-60.170076	-58.749704	-55.185027
-9.30	-59.982797	-58.811312	-54.229897
-9.20	-59.768658	-58.781176	-52.867336
-9.10	-59.570360	-58.718566	-52.281624
-9.00	-59.320264	-58.617770	-52.532915
-8.90	-59.052459	-58.395958	-53.953807
-8.80	-58.752664	-58.072546	-55.881648
-8.70	-58.387113	-57.758731	-57.013570
-8.60	-57.869635	-57.240566	-58.076951
-8.50	-57.046033	-56.274408	-58.746127
-8.40	-56.795285	-56.040173	-59.113846
-8.30	-56.531636	-55.699442	-59.263664
-8.20	-56.863839	-56.059794	-59.277212
-8.10	-56.809145	-56.154179	-59.132653
-8.00	-56.402145	-55.943032	-58.834875
-7.90	-56.295683	-55.295252	-58.113478
-7.80	-56.228470	-54.979058	-58.050193
-7.70	-56.121183	-54.612348	-57.980839
-7.60	-56.438147	-54.421344	-58.564578
-7.50	-56.598840	-53.165452	-58.972943
-7.40	-57.246102	-52.495453	-59.154036
-7.30	-57.684848	-51.571249	-59.200562
-7.20	-57.841072	-52.482738	-59.195266
-7.10	-57.760669	-53.743520	-59.018678
-7.00	-57.525003	-55.389287	-58.888719
-6.90	-57.094617	-56.418418	-58.735379
-6.80	-55.975170	-56.799054	-58.620223
-6.70	-55.066326	-56.453868	-58.507795
-6.60	-54.916666	-55.960315	-58.302597
-6.50	-55.432988	-55.451059	-57.974696
-6.40	-56.441778	-55.193625	-57.489155
-6.30	-57.144522	-55.277135	-56.798642
-6.20	-57.430373	-55.339517	-56.587493
-6.10	-57.271456	-55.471346	-56.571561
-6.00	-56.620865	-55.786885	-56.613157
-5.90	-56.458954	-56.582141	-56.538475
-5.80	-56.179475	-57.518879	-56.727264
-5.70	-56.604661	-58.127843	-56.959907
-5.60	-56.899077	-58.257122	-57.456514
-5.50	-56.952602	-58.004187	-57.850817
-5.40	-56.711186	-58.036013	-57.867050
-5.30	-56.173855	-58.141510	-57.275716
-5.20	-55.623248	-58.415153	-56.358847
-5.10	-54.844420	-58.132373	-56.274653
-5.00	-55.034081	-58.356882	-56.631107
-4.90	-55.304660	-58.401564	-57.769840
-4.80	-55.877938	-58.974133	-58.645056
-4.70	-56.282465	-59.356891	-59.072596
-4.60	-56.705181	-59.483348	-59.206304
-4.50	-57.172758	-59.168134	-59.152690
-4.40	-57.538476	-58.704358	-58.978379
-4.30	-57.503838	-58.581288	-58.683057
-4.20	-57.041209	-58.760969	-58.242076
-4.10	-57.004006	-59.200071	-57.651730
-4.00	-56.801348	-59.482605	-57.516321
-3.90	-57.002836	-59.597863	-57.502557
-3.80	-56.641973	-59.551343	-57.895053
-3.70	-56.575116	-59.431922	-58.188517
-3.60	-56.363272	-59.300174	-58.253584
-3.50	-56.360147	-59.114792	-58.074204
-3.40	-56.948904	-58.918083	-57.732351
-3.30	-57.293141	-58.704591	-57.136092
-3.20	-58.015511	-58.332817	-56.150717
-3.10	-58.352137	-57.709467	-55.850147
-3.00	-58.296465	-56.933481	-55.489116
-2.90	-57.859871	-56.757382	-55.678780
-2.80	-56.922811	-56.642148	-55.621830
-2.70	-56.135524	-57.049782	-54.753760
-2.60	-55.991757	-57.390926	-53.199263
-2.50	-56.426358	-57.605280	-52.694698
-2.40	-57.075540	-57.672255	-52.343911
-2.30	-57.172583	-57.636153	-52.910108
-2.20	-57.340123	-57.493438	-54.129409
-2.10	-57.326093	-57.040225	-55.118551
-2.00	-57.621988	-56.437849	-56.407687
-1.90	-57.804926	-56.352345	-56.938684
-1.80	-57.488201	-56.381409	-57.212561
-1.70	-57.248035	-56.899829	-57.474352
-1.60	-57.147047	-57.374511	-57.997251
-1.50	-57.403425	-57.567542	-58.563085
-1.40	-57.676137	-57.511671	-59.028128
-1.30	-57.707749	-57.221320	-59.213923
-1.20	-57.473656	-56.796004	-59.219662
-1.10	-56.717084	-55.922463	-59.134002
-1.00	-56.292808	-54.783873	-58.902966
-0.90	-55.930432	-53.358566	-58.571797
-0.80	-55.576745	-53.514482	-58.131147
-0.70	-54.778599	-53.901546	-57.213516
-0.60	-54.681264	-55.448888	-56.964651
-0.50	-53.971608	-56.407467	-56.732943
-0.40	-54.585482	-56.875894	-57.000321
-0.30	-55.365575	-56.780541	-56.931522
-0.20	-56.416358	-56.003972	-56.780916
-0.10	-57.652884	-55.583185	-56.683927
0.00	-58.344579	-54.915969	-56.890066
0.10	-58.525634	-55.216550	-57.009706
0.20	-57.956012	-55.099074	-56.487036
0.30	-57.039438	-55.897016	-56.274162
0.40	-56.974327	-56.200749	-55.899460
0.50	-57.308517	-56.606237	-56.593754
0.60	-58.238926	-56.887182	-57.253934
0.70	-58.891566	-57.021152	-58.000352
0.80	-58.798758	-57.185339	-58.231238
0.90	-58.839063	-56.880680	-58.160452
1.00	-58.832680	-56.505384	-57.386036
1.10	-59.328343	-56.638034	-57.350626
1.20	-59.719936	-57.232406	-57.244172
1.30	-59.965373	-58.279438	-57.735480
1.40	-60.045467	-59.054196	-58.256779
1.50	-59.893239	-59.372557	-58.414073
1.60	-59.717052	-59.250397	-58.378898
1.70	-59.439206	-58.743475	-58.203165
1.80	-59.155995	-58.593449	-57.964737
1.90	-58.866399	-58.252626	-57.703254
2.00	-58.608933	-58.363291	-57.427706
2.10	-58.277713	-58.744046	-57.147936
2.20	-57.845606	-59.073007	-56.557923
2.30	-56.883798	-59.709554	-55.839065
2.40	-56.597178	-60.124435	-55.487851
2.50	-56.256558	-60.322265	-54.769918
2.60	-56.550486	-60.330944	-55.067249
2.70	-56.792251	-60.318804	-55.408507
2.80	-56.542069	-60.268088	-56.012500
2.90	-55.123910	-60.186429	-56.475304
3.00	-54.976604	-60.071529	-56.721657
3.10	-54.805963	-59.905116	-56.757035
3.20	-55.574217	-59.615942	-56.639687
3.30	-56.289592	-58.787403	-56.356318
3.40	-56.428556	-58.536212	-55.852512
3.50	-55.945151	-58.101075	-54.377613
3.60	-55.271347	-58.338056	-53.977908
3.70	-55.342992	-58.498837	-53.883148
3.80	-55.687925	-58.340946	-54.765703
3.90	-56.077795	-57.890716	-55.813454
4.00	-56.669115	-57.839547	-56.527243
4.10	-56.981861	-57.966492	-56.776998
4.20	-57.591911	-58.456063	-56.416829
4.30	-58.108151	-58.693877	-56.168695
4.40	-58.417806	-58.626474	-56.051200
4.50	-58.479520	-58.341234	-56.274309
4.60	-58.369623	-57.646227	-56.491986
4.70	-58.128021	-57.220786	-56.145761
4.80	-57.662835	-56.868062	-56.203877
4.90	-56.620061	-56.426428	-56.222490
5.00	-55.822025	-56.556221	-56.610083
5.10	-55.326533	-56.362489	-56.907274
5.20	-55.602747	-57.017568	-56.907333
5.30	-56.220829	-57.676627	-56.079304
5.40	-56.536137	-58.479245	-55.494229
5.50	-55.637247	-58.941463	-55.018435
5.60	-55.687488	-58.993658	-55.015848
5.70	-55.595632	-58.784440	-54.721597
5.80	-56.578648	-58.481037	-54.911942
5.90	-57.288950	-58.078766	-55.190955
6.00	-57.384701	-57.656576	-55.989626
6.10	-56.509742	-57.157765	-56.395573
6.20	-56.254033	-56.253252	-55.579652
6.30	-55.871739	-55.491911	-53.819268
6.40	-55.838405	-54.503783	-51.137338
6.50	-55.795987	-53.473721	-49.228548
6.60	-55.812366	-51.793410	-46.082513
6.70	-55.675624	-48.798688	-43.239422
6.80	-55.192391	-44.657201	-38.404456
6.90	-54.027403	-39.080890	-30.790662
7.00	-51.409637	-32.246052	-26.854613
7.10	-47.097788	-26.523414	-28.130620
7.20	-40.396693	-26.953557	-34.017728
7.30	-32.636821	-31.689546	-41.827347
7.40	-28.341172	-38.734210	-48.858049
7.50	-28.573337	-46.563172	-53.770357
7.60	-31.546253	-51.922936	-56.559093
7.70	-38.327543	-55.294981	-57.959047
7.80	-43.789196	-57.013957	-58.555082
7.90	-48.171956	-58.012204	-58.697185
8.00	-51.204862	-58.632778	-59.067221
8.10	-52.662267	-59.188850	-59.676493
8.20	-53.238237	-59.487897	-60.306809
8.30	-53.781112	-59.736844	-60.629382
8.40	-54.025500	-60.113830	-60.820799
8.50	-54.818189	-60.467825	-60.780385
8.60	-55.290933	-60.876114	-60.478477
8.70	-55.557363	-61.186380	-60.202802
8.80	-55.648943	-61.304524	-59.999910
8.90	-55.644667	-61.206128	-59.679139
9.00	-55.663860	-61.130277	-58.905981
9.10	-55.788691	-61.049958	-58.264734
9.20	-56.013291	-60.654014	-57.628701
9.30	-56.227908	-60.190882	-56.911145
9.40	-56.550521	-59.900155	-56.103501
9.50	-56.793899	-59.321908	-55.329957
9.60	-56.903318	-58.672466	-54.468888
9.70	-56.618483	-57.947530	-53.411639
9.80	-56.261417	-56.862756	-52.267561
9.90	-55.928850	-55.740914	-50.685881
10.00	-55.347676	-54.520637	-48.224939
10.10	-54.654432	-53.316056	-45.919860
10.20	-53.795506	-52.056610	-43.372653
10.30	-53.026977	-51.246344	-41.476546
10.40	-52.108271	-50.151493	-41.250350
10.50	-50.651897	-49.438396	-43.104694
10.60	-47.993464	-49.302180	-45.252012
10.70	-45.164379	-49.041192	-46.519234
10.80	-42.902214	-48.350866	-47.124675
10.90	-42.371412	-48.017747	-46.634613
11.00	-42.972105	-45.963647	-46.503884
11.10	-43.699482	-44.766165	-47.661170
11.20	-43.821431	-43.293116	-49.036746
11.30	-43.976282	-42.703851	-50.334744
11.40	-44.305883	-42.444038	-50.117866
11.50	-44.951783	-42.613517	-49.729356
11.60	-46.503759	-43.492515	-49.185381
11.70	-47.340972	-45.254086	-49.586484
11.80	-47.943560	-48.091833	-50.606560
11.90	-48.584006	-51.387885	-51.720613
12.00	-49.627962	-53.875484	-51.853711
12.10	-51.357106	-55.430371	-51.847336
12.20	-52.703179	-55.714235	-50.812831
12.30	-53.567062	-55.283515	-49.911385
12.40	-53.404334	-54.373372	-49.993636
12.50	-52.069959	-53.090111	-50.510482
12.60	-50.165063	-52.112342	-51.287330
12.70	-48.640652	-51.177399	-51.601618
12.80	-47.728976	-50.360377	-51.522407
12.90	-47.720515	-49.207459	-50.437713
13.00	-48.048789	-48.116582	-49.158406
13.10	-47.275136	-47.533089	-47.535395
13.20	-46.069763	-47.866339	-47.294552
13.30	-44.715643	-48.583975	-47.938010
13.40	-44.769588	-49.393515	-49.627968
13.50	-45.411171	-49.187622	-51.386224
13.60	-47.123127	-48.524496	-52.321253
13.70	-48.249398	-47.395310	-52.506358
13.80	-49.321429	-46.379585	-52.114235
13.90	-50.051050	-45.655868	-51.639715
14.00	-51.191154	-45.516762	-51.159406
14.10	-51.839988	-44.552316	-50.707046
14.20	-51.936289	-44.891325	-50.449029
14.30	-51.205905	-45.806269	-49.916141
14.40	-50.295051	-48.411490	-49.185798
14.50	-50.088418	-50.782955	-47.615802
14.60	-49.955847	-52.467122	-46.365712
14.70	-50.369829	-52.687213	-45.176768
14.80	-50.514434	-52.447955	-45.424238
14.90	-50.371567	-52.077822	-44.569011
15.00	-49.549415	-51.508802	-44.947071
15.10	-48.481913	-50.602701	-45.117906
15.20	-47.568173	-49.951391	-46.816252
15.30	-47.670427	-49.404664	-48.675174
15.40	-47.951528	-49.612450	-49.642602
15.50	-48.306331	-49.149713	-49.904273
15.60	-47.854816	-49.044628	-49.935017
15.70	-47.507436	-48.934473	-49.965207
15.80	-46.950877	-48.647108	-50.374654
15.90	-46.694913	-48.816104	-50.651066
16.00	-46.733626	-48.164296	-50.481545
16.10	-47.839290	-47.603392	-49.885007
16.20	-48.920239	-47.617551	-48.988769
16.30	-50.112520	-47.841704	-48.182215
16.40	-50.667829	-48.115607	-48.525616
16.50	-49.850220	-48.185302	-49.599337
16.60	-48.418835	-47.711113	-50.984904
16.70	-47.394601	-47.761834	-52.295233
16.80	-46.955673	-48.313120	-52.719648
16.90	-46.662740	-49.341879	-52.561091
17.00	-46.636881	-49.968335	-52.255096
17.10	-46.985070	-49.579214	-52.045585
17.20	-47.199961	-48.136876	-51.755036
17.30	-48.039623	-47.460299	-51.029148
17.40	-48.563247	-46.484820	-50.721069
17.50	-48.976912	-46.980203	-50.159131
17.60	-49.838968	-47.766985	-50.007597
17.70	-50.590901	-49.171378	-49.927931
17.80	-50.545532	-50.531920	-49.800647
17.90	-50.229959	-51.003889	-49.989732
18.00	-49.278313	-50.829365	-49.950478
18.10	-47.667672	-50.326780	-49.625386
18.20	-46.280712	-49.235255	-49.351468
18.30	-45.574999	-48.703366	-49.272684
18.40	-46.448512	-48.288727	-48.981794
18.50	-47.412493	-48.201854	-48.183971
18.60	-48.910909	-48.164403	-47.947744
18.70	-49.973735	-48.079604	-47.559840
18.80	-50.826232	-48.384685	-47.814301
18.90	-51.111911	-48.636532	-48.280506
19.00	-49.898740	-49.236152	-48.420290
19.10	-48.684815	-49.759000	-48.368664
19.20	-46.487228	-50.385984	-48.106113
19.30	-45.818272	-50.505832	-48.269235
19.40	-46.283006	-49.384195	-48.312474
19.50	-47.851635	-47.881677	-49.322742
19.60	-49.798266	-46.711686	-49.947683
19.70	-51.116531	-46.185382	-50.874485
19.80	-51.560417	-46.536930	-51.070640
19.90	-51.069952	-46.420197	-51.729948
20.00	-50.569608	-46.455698	-51.847327
20.10	-49.758709	-46.889408	-51.737856
20.20	-48.758718	-47.866068	-51.756347
20.30	-46.870140	-49.286521	-51.063280
20.40	-45.259777	-49.857486	-51.237376
20.50	-44.734544	-49.323706	-51.244178
20.60	-45.236307	-48.733264	-51.467038
20.70	-46.400144	-48.601227	-51.455953
20.80	-46.355932	-48.377399	-51.009068
20.90	-46.448914	-48.797806	-49.667943
21.00	-46.989679	-48.439358	-48.209687
21.10	-47.672635	-48.247734	-47.536662
21.20	-48.232643	-47.565443	-47.127578
21.30	-47.662202	-47.616765	-48.381631
21.40	-47.632012	-48.344017	-48.870023
21.50	-48.419223	-49.526236	-49.226857
21.60	-49.900733	-50.598060	-48.587916
21.70	-50.823243	-50.754829	-47.984635
21.80	-50.635816	-50.381460	-47.476514
21.90	-50.085151	-49.958203	-47.133453
22.00	-49.908695	-49.264734	-47.722232
22.10	-49.932958	-49.013399	-47.857323
22.20	-50.007406	-48.908234	-49.067981
22.30	-49.751633	-48.544981	-49.349868
22.40	-49.484991	-48.470805	-49.441305
22.50	-48.942909	-47.823077	-49.369527
22.60	-49.213753	-47.036381	-48.788249
22.70	-49.049928	-47.589544	-49.256729
22.80	-49.039759	-48.010535	-49.331118
22.90	-49.208702	-49.601121	-50.704988
23.00	-48.636481	-51.051901	-51.703464
23.10	-48.982342	-52.462022	-52.768714
23.20	-48.747995	-53.051330	-52.980480
23.30	-48.400071	-52.965445	-52.143489
23.40	-47.903438	-52.079193	-51.290643
23.50	-47.487842	-51.301525	-50.683764
23.60	-48.106646	-50.579281	-50.469376
23.70	-48.843871	-50.160262	-50.592680
23.80	-48.714735	-50.190413	-50.798909
23.90	-48.329113	-49.752025	-50.459576
24.00	-47.030024	-49.025286	-49.811789
24.10	-46.922372	-48.378661	-49.352184
24.20	-46.289410	-47.603324	-48.487401
24.30	-47.500895	-45.995139	-47.978898
24.40	-48.405107	-45.487447	-47.228196
24.50	-49.315265	-44.775865	-47.037994
24.60	-49.689390	-45.879470	-47.245871
24.70	-49.831318	-47.225189	-48.378044
24.80	-49.999822	-48.756644	-49.217162
24.90	-50.678543	-49.760191	-50.046815
25.00	-51.092342	-49.678390	-50.230052
25.10	-51.370180	-49.194784	-50.507433
25.20	-50.400266	-48.290055	-50.473631
25.30	-48.745224	-48.387574	-49.991088
25.40	-47.407982	-48.803241	-49.992688
25.50	-47.016143	-49.060088	-49.731395
25.60	-47.958240	-49.781920	-49.789705
25.70	-48.722633	-49.376212	-49.747874
25.80	-49.713113	-48.701664	-49.366157
25.90	-49.769963	-48.270552	-50.187227
26.00	-49.325645	-48.119984	-50.727709
26.10	-49.292039	-48.316169	-51.380665
26.20	-48.487135	-48.564267	-51.170557
26.30	-48.130411	-48.897610	-50.444629
26.40	-47.731654	-49.345425	-49.380619
26.50	-48.458652	-50.244809	-49.331266
26.60	-49.441468	-50.809445	-49.681954
26.70	-50.691132	-50.729878	-50.712245
26.80	-51.635568	-51.097447	-51.298129
26.90	-51.687460	-51.460630	-51.313445
27.00	-51.709738	-52.410814	-50.432390
27.10	-51.404400	-52.922437	-49.535384
27.20	-51.434366	-52.776968	-48.549416
27.30	-51.417729	-52.353145	-48.540223
27.40	-51.293119	-51.506522	-48.386315
27.50	-50.604335	-50.950555	-48.883133
27.60	-49.765819	-50.203563	-49.677974
27.70	-49.290471	-50.005650	-50.419119
27.80	-48.694912	-49.655323	-51.113932
27.90	-47.750611	-49.310789	-50.937670
28.00	-47.322502	-48.983153	-50.637215
28.10	-46.241981	-48.047696	-50.000626
28.20	-45.435645	-47.560256	-49.923366
28.30	-44.314111	-47.664104	-49.566368
28.40	-43.912935	-48.358678	-49.319887
28.50	-44.346319	-49.413496	-48.570412
28.60	-45.357901	-49.921295	-48.549167
28.70	-46.559424	-49.404526	-47.929920
28.80	-47.045159	-48.666339	-47.207144
28.90	-48.127009	-47.534171	-45.593856
29.00	-48.997791	-46.669710	-45.712854
29.10	-49.880011	-46.621286	-46.147475
29.20	-50.667128	-47.124639	-47.868306
29.30	-51.584513	-47.722014	-49.510513
29.40	-52.249565	-48.253694	-50.490168
29.50	-52.981397	-48.831046	-50.955644
29.60	-53.055337	-49.270081	-50.871948
29.70	-53.004124	-49.912912	-50.417401
29.80	-52.665408	-50.650680	-49.828959
29.90	-52.445697	-51.180929	-49.847558
30.00	-52.277993	-51.989175	-49.543664
30.10	-51.905557	-51.946830	-48.672540
30.20	-51.362080	-51.704373	-47.790382
30.30	-50.155058	-51.568100	-47.327288
30.40	-48.919970	-51.214570	-47.458511
30.50	-47.980818	-50.721131	-47.411452
30.60	-48.111666	-49.412654	-48.203638
30.70	-48.275096	-48.228697	-48.543204
30.80	-47.409678	-46.852877	-49.834791
30.90	-46.316785	-45.626533	-50.552642
31.00	-45.583163	-45.540699	-50.193132
31.10	-45.121157	-45.458695	-49.845926
31.20	-45.175089	-46.077071	-49.291368
31.30	-45.290809	-47.421959	-48.950943
31.40	-45.559474	-48.597032	-49.223695
31.50	-46.332299	-49.628802	-48.745170
31.60	-47.964959	-50.075681	-47.958792
31.70	-48.845905	-50.199031	-47.086116
31.80	-49.890007	-50.394343	-45.961750
31.90	-50.016782	-50.476350	-46.326331
32.00	-50.134561	-50.534230	-46.875796
32.10	-49.974983	-50.004047	-48.846112
32.20	-50.114963	-48.805179	-50.681060
32.30	-50.083168	-48.420414	-52.169746
32.40	-50.196152	-47.732456	-52.536395
32.50	-50.219076	-48.643458	-52.880871
32.60	-50.340082	-49.147734	-52.799723
32.70	-50.562884	-49.188605	-52.616962
32.80	-50.739686	-47.905300	-51.965890
32.90	-50.065778	-46.590576	-51.133150
33.00	-50.065648	-46.197619	-50.882114
33.10	-49.465045	-46.900426	-50.821410
33.20	-49.760322	-48.416021	-50.746567
33.30	-49.182732	-49.303751	-50.237550
33.40	-49.743728	-49.657161	-49.445492
33.50	-49.808345	-49.639967	-49.569261
33.60	-50.543091	-49.216807	-50.202004
33.70	-50.129411	-49.465093	-51.207468
33.80	-49.096066	-48.935442	-52.082584
33.90	-48.079037	-48.743318	-52.315310
34.00	-46.364635	-48.252757	-51.559303
34.10	-45.181533	-48.418737	-50.563509
34.20	-44.892039	-47.773592	-49.753820
34.30	-45.899551	-48.156156	-49.356462
34.40	-47.759779	-47.916486	-49.456938
34.50	-49.830189	-48.441926	-48.978803
34.60	-51.186513	-47.757000	-49.226866
34.70	-52.211600	-48.039942	-49.723178
34.80	-51.982810	-47.603078	-50.747698
34.90	-51.397312	-48.256332	-51.093031
35.00	-50.491028	-48.609678	-51.469979
35.10	-49.802683	-48.313511	-51.027861
35.20	-49.595554	-48.346007	-51.387075
35.30	-48.966312	-48.597632	-51.246965
35.40	-48.362419	-49.294389	-51.755520
35.50	-47.395318	-50.612495	-52.012378
35.60	-47.029048	-51.290871	-52.046899
35.70	-46.921940	-51.747231	-51.662583
35.80	-47.677241	-51.228542	-50.641395
35.90	-48.817833	-50.625916	-49.216873
36.00	-49.865781	-50.239862	-47.642372
36.10	-50.359098	-50.518252	-46.895614
36.20	-49.698510	-50.248403	-46.728035
36.30	-49.273554	-50.293731	-47.718261
36.40	-47.977320	-50.022448	-48.560245
36.50	-47.308943	-50.659852	-50.036707
36.60	-45.942784	-51.501771	-51.146734
36.70	-45.599671	-52.742695	-51.874915
36.80	-46.591361	-52.954239	-51.933365
36.90	-48.623279	-52.188336	-50.860428
37.00	-50.940817	-51.410774	-49.710078
37.10	-52.061852	-50.601977	-48.505086
37.20	-51.630708	-50.520460	-48.005891
37.30	-50.039686	-50.232086	-47.942147
37.40	-49.047468	-50.464944	-48.465890
37.50	-47.591634	-50.172552	-49.732607
37.60	-47.853680	-49.401136	-51.320057
37.70	-48.081816	-48.181818	-52.658576
37.80	-49.334936	-47.387430	-53.303088
37.90	-50.791786	-47.176602	-53.093167
38.00	-52.013546	-47.247006	-52.445430
38.10	-51.979480	-47.817527	-50.968426
38.20	-51.919577	-48.544282	-49.530043
38.30	-51.583155	-49.998871	-48.931295
38.40	-51.410382	-51.702085	-48.819611
38.50	-50.833507	-52.936718	-49.310716
38.60	-50.756824	-53.334712	-49.298364
38.70	-50.841935	-52.569636	-48.307578
38.80	-50.778444	-51.286966	-48.398337
38.90	-50.673024	-50.494284	-48.828131
39.00	-50.529423	-50.455354	-50.586646
39.10	-50.131610	-51.066804	-52.134453
39.20	-50.298757	-50.961361	-53.114221
39.30	-49.308951	-50.921618	-53.279886
39.40	-48.976863	-50.064636	-52.427329
39.50	-49.299330	-49.469777	-51.825419
39.60	-50.308182	-48.720588	-51.663307
39.70	-50.995882	-47.464525	-51.931674
39.80	-51.325665	-46.213684	-52.720757
39.90	-50.773486	-45.613392	-52.927180
40.00	-50.612813	-45.780270	-52.514508
40.10	-49.769946	-46.311493	-51.501819
40.20	-49.460044	-47.441291	-50.467258
40.30	-48.289295	-47.674029	-49.226761
40.40	-47.274584	-47.771024	-48.147203
40.50	-45.759979	-47.597594	-47.417629
40.60	-45.892149	-48.082289	-47.833768
40.70	-45.206121	-48.822077	-48.699453
40.80	-45.712646	-50.522511	-49.573494
40.90	-45.498791	-51.880743	-49.494109
41.00	-45.910898	-52.856587	-48.925882
41.10	-46.894005	-53.327293	-47.720450
41.20	-48.177526	-52.949381	-46.557696
41.30	-49.556231	-52.120833	-46.651381
41.40	-51.117073	-51.450418	-47.769105
41.50	-51.836192	-50.013348	-49.859574
41.60	-52.174679	-49.354682	-52.116987
41.70	-52.222187	-48.721773	-53.005583
41.80	-51.765022	-49.404532	-53.635015
41.90	-52.021464	-49.586069	-53.722508
42.00	-51.604160	-50.832888	-53.836162
42.10	-51.716134	-51.645893	-53.834864
42.20	-51.878974	-52.494903	-53.191650
42.30	-52.097175	-52.714538	-51.741999
42.40	-52.488325	-52.908897	-50.836534
42.50	-52.650619	-53.051895	-50.245714
42.60	-52.411527	-53.117127	-50.426244
42.70	-52.102263	-52.618960	-50.084191
42.80	-50.995529	-52.087163	-49.983546
42.90	-49.685906	-52.033963	-49.773188
43.00	-49.075018	-52.229589	-50.069744
43.10	-48.506140	-52.683416	-50.418909
43.20	-49.477170	-52.712438	-50.411728
43.30	-49.891668	-52.062408	-49.960867
43.40	-49.735578	-50.204937	-49.539103
43.50	-48.852172	-48.893504	-49.470769
43.60	-47.125979	-48.071232	-49.437196
43.70	-46.553463	-47.746601	-49.361578
43.80	-45.554031	-47.080083	-48.888264
43.90	-45.894556	-46.426745	-47.558318
44.00	-45.610422	-45.241771	-46.589722
44.10	-45.984241	-45.533603	-46.559934
44.20	-46.372045	-45.943932	-46.734567
44.30	-47.707649	-47.774452	-47.251555
44.40	-49.480375	-49.391350	-47.751244
44.50	-50.852410	-51.099619	-48.584910
44.60	-52.064131	-52.241529	-49.696464
44.70	-52.365249	-52.025735	-50.946620
44.80	-53.003308	-51.997539	-51.749188
44.90	-53.317731	-51.774968	-51.685455
45.00	-53.769967	-52.038386	-50.737803
45.10	-53.810491	-52.423831	-50.529246
45.20	-53.439879	-52.453535	-49.967574
45.30	-52.152158	-52.258793	-49.904742
45.40	-50.494889	-52.257572	-49.575296
45.50	-49.495441	-52.145489	-49.923772
45.60	-48.186284	-52.241692	-50.709282
45.70	-48.518169	-52.142997	-52.016026
45.80	-49.186231	-51.273481	-52.645672
45.90	-50.124192	-50.232906	-52.851414
46.00	-51.641447	-49.618446	-52.662579
46.10	-52.321943	-49.037788	-52.122946
46.20	-52.033695	-48.233947	-51.374089
46.30	-51.150352	-48.006608	-51.318184
46.40	-50.111144	-47.869549	-51.809934
46.50	-48.637766	-49.001235	-52.816432
46.60	-47.566658	-50.171639	-53.601878
46.70	-46.123650	-51.303768	-53.931141
46.80	-44.436494	-51.587660	-53.805146
46.90	-42.712876	-52.116121	-53.152030
47.00	-43.128882	-51.897638	-52.146615
47.10	-43.665917	-51.431668	-50.554388
47.20	-45.998315	-50.780895	-47.787900
47.30	-47.236324	-50.679551	-45.115828
47.40	-47.300369	-51.068378	-44.109647
47.50	-46.978297	-51.839758	-44.207332
47.60	-47.093543	-51.332815	-46.097443
47.70	-47.595592	-51.266574	-47.033577
47.80	-49.161062	-51.216092	-48.770836
47.90	-50.543207	-51.922829	-49.884285
48.00	-51.817743	-52.692895	-51.596604
48.10	-52.465029	-52.964919	-52.540568
48.20	-53.357757	-52.519920	-52.724300
48.30	-53.709285	-51.891643	-52.282834
48.40	-54.032912	-51.150937	-51.300494
48.50	-53.766027	-51.267107	-50.399424
48.60	-52.986278	-51.384676	-50.124252
48.70	-52.359880	-51.470675	-50.530827
48.80	-51.295975	-51.328091	-51.225915
48.90	-50.597316	-51.342099	-51.938707
49.00	-50.439666	-51.419024	-52.101151
49.10	-50.210770	-52.113078	-52.382306
49.20	-49.941435	-52.427231	-52.511785
49.30	-50.154338	-52.330716	-53.010722
49.40	-49.665793	-51.222159	-53.120517
49.50	-50.194206	-49.825591	-52.764094
49.60	-50.260584	-47.860096	-52.140519
49.70	-49.970799	-46.940746	-51.168293
49.80	-49.490162	-46.643894	-51.106290
49.90	-48.852510	-47.164378	-51.120563
50.00	-48.540254	-47.105608	-52.078262
50.10	-48.331344	-48.054297	-52.635167
50.20	-49.188937	-48.452005	-52.766769
50.30	-49.565988	-49.087010	-52.034542
50.40	-49.597217	-49.413754	-51.591866
50.50	-49.304623	-49.324808	-50.810140
50.60	-47.930364	-49.588006	-50.909164
50.70	-46.723289	-49.800325	-50.507251
50.80	-47.162994	-50.249468	-50.904506
50.90	-47.715302	-50.991374	-51.000356
51.00	-49.673147	-51.775827	-51.112179
51.10	-50.573880	-52.641308	-50.498059
51.20	-51.107879	-53.174791	-49.734483
51.30	-51.596767	-52.835021	-48.660136
51.40	-51.732146	-51.847869	-47.451622
51.50	-51.776948	-50.958586	-46.819504
51.60	-51.403726	-50.174247	-47.196853
51.70	-51.105942	-50.599369	-48.208576
51.80	-50.542644	-51.087742	-49.436132
51.90	-50.281876	-52.127773	-49.821615
52.00	-50.013950	-52.647841	-48.411220
52.10	-50.097131	-52.718565	-46.916786
52.20	-50.514697	-52.298439	-46.528708
52.30	-51.233496	-51.197753	-47.539546
52.40	-51.785700	-49.513171	-49.694216
52.50	-52.215905	-48.325505	-51.486923
52.60	-52.036354	-48.197172	-52.488858
52.70	-50.822647	-49.036432	-52.492405
52.80	-49.918922	-50.143431	-51.852615
52.90	-49.500172	-50.077517	-50.523705
53.00	-49.869953	-49.256204	-50.325060
53.10	-49.932066	-49.511740	-49.855695
53.20	-50.022758	-50.153748	-50.719739
53.30	-49.689972	-52.056579	-51.261666
53.40	-49.240407	-53.321962	-51.437707
53.50	-48.375058	-53.750170	-52.032317
53.60	-48.290702	-53.570337	-52.239980
53.70	-48.478179	-52.777163	-53.320571
53.80	-49.551105	-51.771538	-53.565070
53.90	-49.724767	-50.980152	-53.199119
54.00	-48.706699	-49.979782	-52.924945
54.10	-48.377721	-48.820819	-52.607575
54.20	-48.120675	-48.894900	-52.564529
54.30	-49.622042	-49.271754	-52.057238
54.40	-51.149349	-51.183380	-51.892684
54.50	-52.628189	-52.196358	-51.704076
54.60	-53.262230	-52.764514	-51.534490
54.70	-53.062599	-53.108547	-51.057102
54.80	-52.048519	-53.036777	-50.298621
54.90	-50.685296	-52.862719	-49.656657
55.00	-50.047093	-52.191820	-49.296919
55.10	-49.607375	-51.661355	-49.597576
55.20	-49.266123	-50.434610	-49.663133
55.30	-49.203962	-49.007289	-50.316585
55.40	-49.132088	-48.197051	-50.351854