# TStellate2_CT2 Optimisation
# 20130903+16:43:49
 
#param.w.x[lsr][ts] = 0.0014116	[1e-07,0.3]
#param.w.x[hsr][ts] = 0.001099	[1e-07,0.3]
#param.w.x[ds][ts] = 0.00041157	[1e-07,0.3]
#param.w.x[tv][ts] = 0.00015319	[1e-07,0.3]
#param.w.x[glg][ts] = 0.00038271	[1e-07,0.3]
# final error=93.201838
# Threshold level 20 
# Threshold rate 0 
# TS exemplar RMP -60.9
# TS exemplar CF 9100
# CV RMS errors:	7.022	22.37	6.718	
# CV Penalties :	0	0	0	0	0	0	0	0	0	0	0	0	10.79	0	0	0	0	10.22	0	0	10	0	0	0	0	0	0	0	10.5	0	
# IV RMS errors:	6.688	2.648	6.245	
# IV Penalties :	
# Final Error  93.2018   93.2018
# Time	 IV @spl=20 (mV)	 IV @spl=30 (mV)	 IV @spl=40 (mV)
-20.00	-65.000000	-65.000000	-65.000000
-19.90	-64.869248	-64.869248	-64.869248
-19.80	-64.745181	-64.745181	-64.745181
-19.70	-64.627368	-64.627368	-64.627368
-19.60	-64.515507	-64.515507	-64.515507
-19.50	-64.409324	-64.409324	-64.409324
-19.40	-64.308557	-64.308557	-64.308557
-19.30	-64.212957	-64.212957	-64.212957
-19.20	-64.122281	-64.122281	-64.122281
-19.10	-64.036293	-64.036293	-64.036293
-19.00	-63.954716	-63.954716	-63.954716
-18.90	-63.877337	-63.877337	-63.877337
-18.80	-63.803956	-63.803956	-63.803956
-18.70	-63.734384	-63.734384	-63.734384
-18.60	-63.668439	-63.668439	-63.668439
-18.50	-63.605948	-63.605948	-63.605948
-18.40	-63.546743	-63.546743	-63.546743
-18.30	-63.490665	-63.490665	-63.490665
-18.20	-63.437561	-63.437561	-63.437561
-18.10	-63.387285	-63.387285	-63.387285
-18.00	-63.339696	-63.339696	-63.339696
-17.90	-63.294636	-63.294636	-63.294636
-17.80	-63.251959	-63.251959	-63.251959
-17.70	-63.211544	-63.211544	-63.211544
-17.60	-63.173277	-63.173277	-63.173277
-17.50	-63.137050	-63.137050	-63.137050
-17.40	-63.102759	-63.102759	-63.102759
-17.30	-63.070307	-63.038312	-63.070307
-17.20	-63.039599	-62.985143	-63.039599
-17.10	-62.985627	-62.940548	-63.010547
-17.00	-62.915700	-62.902599	-62.958156
-16.90	-62.835140	-62.869894	-62.889735
-16.80	-62.772737	-62.816495	-62.835493
-16.70	-62.692079	-62.749000	-62.791955
-16.60	-62.606430	-62.697068	-62.682638
-16.50	-62.543008	-62.656833	-62.576643
-16.40	-62.471353	-62.625484	-62.473947
-16.30	-62.369869	-62.576112	-62.399517
-16.20	-62.249938	-62.539358	-62.297244
-16.10	-62.116097	-62.413605	-62.201021
-16.00	-61.948800	-62.292073	-62.134187
-15.90	-61.809073	-62.157668	-61.965825
-15.80	-61.641764	-61.943249	-61.800666
-15.70	-61.482076	-61.770165	-61.541365
-15.60	-61.255635	-61.554091	-61.270498
-15.50	-61.081302	-61.359488	-61.041015
-15.40	-60.922481	-61.204819	-60.794468
-15.30	-60.777034	-61.079946	-60.584334
-15.20	-60.689202	-60.953808	-60.425723
-15.10	-60.569619	-60.829010	-60.256240
-15.00	-60.406745	-60.684586	-60.107154
-14.90	-60.119080	-60.523083	-59.878824
-14.80	-59.863112	-60.329353	-59.644070
-14.70	-59.632975	-60.134404	-59.397016
-14.60	-59.397516	-59.942468	-59.164649
-14.50	-59.136386	-59.726552	-58.962241
-14.40	-58.857604	-59.569727	-58.758553
-14.30	-58.627677	-59.342637	-58.546977
-14.20	-58.423549	-59.138133	-58.262866
-14.10	-58.278051	-58.945803	-57.890886
-14.00	-58.120279	-58.688144	-57.351211
-13.90	-57.870521	-58.452833	-56.475819
-13.80	-57.613436	-58.247725	-56.135732
-13.70	-57.214059	-58.013758	-55.718496
-13.60	-56.493544	-57.793076	-55.532696
-13.50	-55.108883	-57.621504	-55.365553
-13.40	-53.762329	-57.316359	-55.726014
-13.30	-53.626724	-56.972785	-56.310009
-13.20	-54.148843	-56.423004	-57.153505
-13.10	-55.504284	-55.238439	-57.819781
-13.00	-56.015698	-53.968257	-58.190246
-12.90	-56.463632	-53.124044	-58.178795
-12.80	-56.616715	-53.196481	-58.062567
-12.70	-57.068918	-53.829139	-57.766050
-12.60	-57.310263	-54.219500	-56.998739
-12.50	-56.939390	-54.495751	-56.440864
-12.40	-56.945465	-55.083549	-55.739094
-12.30	-56.786208	-56.248987	-56.098779
-12.20	-57.234232	-57.482243	-56.559811
-12.10	-57.521903	-58.216405	-57.589572
-12.00	-57.583733	-58.565278	-58.230057
-11.90	-57.331012	-58.571825	-58.503348
-11.80	-56.778281	-58.499718	-58.494196
-11.70	-55.701227	-58.384054	-58.201422
-11.60	-55.165232	-58.150345	-57.542474
-11.50	-54.325555	-57.466096	-57.420093
-11.40	-54.625124	-57.445663	-57.057280
-11.30	-54.715820	-57.378926	-56.954547
-11.20	-54.943936	-57.873257	-57.231463
-11.10	-55.167213	-58.335997	-57.496068
-11.00	-55.056070	-58.617689	-58.133452
-10.90	-54.678507	-58.674137	-58.686966
-10.80	-54.539476	-58.540028	-59.013904
-10.70	-53.642740	-58.182487	-59.123170
-10.60	-54.298849	-57.640392	-59.161771
-10.50	-55.091768	-57.553071	-59.040273
-10.40	-56.361168	-57.622349	-58.845538
-10.30	-56.822480	-58.113492	-58.651015
-10.20	-57.182003	-58.465234	-58.452266
-10.10	-57.406595	-58.537525	-58.225714
-10.00	-57.947765	-58.462128	-57.977773
-9.90	-58.300402	-58.132111	-57.677768
-9.80	-58.426938	-57.452076	-57.418779
-9.70	-58.243904	-57.359622	-57.140360
-9.60	-57.611373	-57.248574	-56.547784
-9.50	-56.335810	-57.855589	-55.713078
-9.40	-54.956407	-58.339977	-55.353223
-9.30	-54.479055	-58.644874	-55.130632
-9.20	-54.668155	-58.746374	-55.093025
-9.10	-56.263953	-58.769268	-54.385004
-9.00	-57.604481	-58.728874	-53.717642
-8.90	-58.700461	-58.576996	-52.925860
-8.80	-59.296029	-58.341114	-53.117881
-8.70	-59.545767	-58.147830	-53.361934
-8.60	-59.595766	-57.884863	-54.490531
-8.50	-59.508128	-57.473605	-55.090630
-8.40	-59.345613	-57.013007	-55.769963
-8.30	-59.126056	-56.188321	-56.589487
-8.20	-58.847880	-55.982369	-57.365054
-8.10	-58.528026	-55.792797	-58.095930
-8.00	-57.908713	-56.309853	-58.548363
-7.90	-57.017847	-56.626596	-58.674852
-7.80	-56.223899	-56.676350	-58.587319
-7.70	-56.325969	-56.506690	-58.097842
-7.60	-56.720863	-56.145418	-57.738680
-7.50	-57.529794	-55.621103	-57.615737
-7.40	-57.869595	-54.675114	-57.847607
-7.30	-57.777656	-54.290247	-58.175741
-7.20	-57.826255	-53.687181	-58.161967
-7.10	-58.107778	-52.959659	-57.882505
-7.00	-58.583388	-52.892490	-57.869119
-6.90	-58.891323	-52.925711	-58.191427
-6.80	-58.941360	-53.724971	-58.668331
-6.70	-58.846382	-54.105641	-58.973444
-6.60	-58.717061	-54.549307	-59.026534
-6.50	-58.487202	-54.344246	-58.911750
-6.40	-58.203940	-54.516122	-58.748857
-6.30	-57.479949	-54.320556	-58.436345
-6.20	-57.324089	-54.963918	-58.021666
-6.10	-57.234684	-55.495332	-57.239317
-6.00	-57.773974	-56.243479	-56.739195
-5.90	-58.181899	-56.588528	-56.061330
-5.80	-58.333034	-56.331718	-55.517805
-5.70	-58.388286	-56.098727	-56.004566
-5.60	-58.313782	-55.400580	-56.687739
-5.50	-58.179209	-55.571991	-57.830514
-5.40	-57.964586	-55.713601	-58.759413
-5.30	-57.590954	-56.526084	-59.396132
-5.20	-57.157648	-57.512447	-59.537829
-5.10	-57.153486	-58.334964	-59.164813
-5.00	-57.377078	-58.859669	-58.795039
-4.90	-57.955998	-58.983744	-58.760131
-4.80	-58.400617	-58.764402	-59.098527
-4.70	-58.621921	-58.192158	-59.594914
-4.60	-58.716026	-58.163799	-59.939392
-4.50	-58.736518	-58.138396	-60.041028
-4.40	-58.652926	-58.715686	-59.987188
-4.30	-58.370860	-59.029844	-59.851178
-4.20	-57.771520	-59.166911	-59.764714
-4.10	-57.360926	-59.117772	-59.661956
-4.00	-57.185240	-58.926452	-59.452490
-3.90	-57.410961	-58.621418	-59.090119
-3.80	-57.792329	-57.843075	-58.295683
-3.70	-58.078449	-57.673336	-57.981657
-3.60	-58.158541	-57.548723	-57.804788
-3.50	-58.105306	-57.992242	-58.137621
-3.40	-57.946620	-58.395146	-58.489152
-3.30	-57.404804	-58.596590	-58.647417
-3.20	-56.756293	-58.522314	-58.578663
-3.10	-56.268534	-58.272556	-58.496647
-3.00	-56.004770	-57.877581	-58.366345
-2.90	-56.528107	-57.043063	-58.188875
-2.80	-57.256777	-56.926560	-58.072656
-2.70	-57.932163	-56.752148	-57.902507
-2.60	-58.294089	-57.192078	-57.669961
-2.50	-58.429907	-57.674715	-57.423060
-2.40	-58.353632	-57.998517	-57.157796
-2.30	-58.319053	-58.089174	-56.799008
-2.20	-58.307140	-58.054642	-56.152619
-2.10	-58.196844	-57.914626	-54.907407
-2.00	-58.018914	-57.687125	-53.788415
-1.90	-57.860924	-57.292596	-53.181818
-1.80	-57.694895	-56.587678	-53.678044
-1.70	-57.562163	-55.114489	-54.840339
-1.60	-57.410297	-54.584977	-55.719067
-1.50	-57.175009	-54.435014	-56.566839
-1.40	-56.886640	-55.609358	-57.027581
-1.30	-56.518656	-56.932714	-57.889495
-1.20	-56.009025	-57.856941	-58.456827
-1.10	-55.264961	-58.260291	-58.764462
-1.00	-55.017717	-58.362241	-58.785839
-0.90	-54.694325	-58.262461	-58.657690
-0.80	-54.665793	-58.137886	-58.460351
-0.70	-54.942659	-57.939413	-58.135262
-0.60	-55.157122	-57.621574	-57.297847
-0.50	-55.684530	-56.929007	-57.203077
-0.40	-55.896532	-56.390134	-57.147918
-0.30	-55.573201	-55.786804	-57.597087
-0.20	-54.966993	-55.837251	-57.972655
-0.10	-54.436889	-56.194681	-58.157870
0.00	-54.183987	-56.798371	-58.119675
0.10	-54.551969	-56.958540	-57.964796
0.20	-55.015828	-57.140943	-57.545782
0.30	-55.083008	-57.312828	-56.782177
0.40	-55.286430	-57.755635	-56.630667
0.50	-55.075353	-58.262706	-56.444978
0.60	-54.483407	-58.574111	-56.792370
0.70	-54.454751	-58.533257	-56.681334
0.80	-54.416226	-58.237714	-56.395385
0.90	-54.903264	-57.513286	-56.146923
1.00	-55.408642	-57.158542	-55.904426
1.10	-55.852222	-56.294747	-55.069014
1.20	-56.583657	-56.755905	-55.271515
1.30	-57.518972	-57.069722	-55.307379
1.40	-58.333028	-57.656725	-56.383825
1.50	-58.522598	-57.908346	-56.762626
1.60	-58.160181	-58.063023	-57.119107
1.70	-58.130673	-58.293102	-57.277167
1.80	-58.003721	-58.753728	-57.707302
1.90	-58.499127	-59.280490	-58.106827
2.00	-58.788566	-59.702889	-58.321612
2.10	-58.817076	-59.914865	-58.413221
2.20	-58.591154	-60.028071	-58.279740
2.30	-57.810769	-60.057185	-58.016071
2.40	-57.653230	-60.080667	-57.273413
2.50	-57.452515	-60.039503	-57.130966
2.60	-57.942609	-59.929077	-56.985722
2.70	-58.427706	-59.860227	-57.499375
2.80	-58.671033	-59.798193	-57.874254
2.90	-58.670353	-59.747688	-58.010768
3.00	-58.572608	-59.693543	-57.978968
3.10	-58.444732	-59.638641	-57.892364
3.20	-58.240241	-59.587712	-57.762618
3.30	-57.984692	-59.469294	-57.558735
3.40	-57.515595	-59.292056	-57.303980
3.50	-56.550703	-58.939242	-56.842023
3.60	-56.176738	-58.701928	-55.989766
3.70	-55.573708	-58.386472	-54.736173
3.80	-55.584205	-58.064219	-54.651090
3.90	-55.940916	-57.585800	-54.773222
4.00	-56.190709	-56.759202	-55.835888
4.10	-56.112502	-56.457450	-56.760378
4.20	-56.379870	-55.715917	-57.144624
4.30	-56.267855	-56.197715	-56.911700
4.40	-56.256775	-56.472849	-56.462534
4.50	-56.716147	-57.154876	-56.137228
4.60	-56.945528	-57.603884	-55.789526
4.70	-57.617986	-57.757924	-55.945829
4.80	-58.105700	-57.516056	-55.662422
4.90	-58.310634	-57.037660	-56.385782
5.00	-58.259447	-56.820711	-56.881582
5.10	-58.086577	-56.400204	-57.722738
5.20	-57.839799	-56.308951	-58.302277
5.30	-57.497851	-55.982900	-58.389872
5.40	-57.089502	-56.034875	-58.124856
5.50	-56.279444	-56.189876	-57.706467
5.60	-55.549902	-56.499426	-57.081910
5.70	-54.597959	-57.079918	-56.418418
5.80	-54.536106	-57.705090	-56.193779
5.90	-54.018601	-58.285232	-56.111855
6.00	-54.308306	-58.643555	-56.722828
6.10	-53.792287	-58.725773	-57.155560
6.20	-53.959450	-58.581841	-57.078409
6.30	-54.398192	-58.212378	-56.516098
6.40	-55.197136	-57.448839	-55.541257
6.50	-55.771683	-56.271259	-54.143151
6.60	-56.033586	-54.564062	-51.690132
6.70	-55.889130	-52.394779	-48.402815
6.80	-55.522866	-49.562286	-43.591393
6.90	-54.495393	-44.564335	-35.837810
7.00	-52.470266	-38.902479	-27.209951
7.10	-49.941350	-29.916145	-24.575521
7.20	-46.093243	-24.628555	-26.857550
7.30	-39.557651	-25.540126	-35.215713
7.40	-31.922460	-30.771538	-44.633286
7.50	-29.218135	-40.011741	-52.265634
7.60	-29.579546	-47.949588	-56.951591
7.70	-35.248490	-53.319007	-59.315138
7.80	-40.740392	-56.514043	-60.439780
7.90	-45.281473	-58.275642	-60.982985
8.00	-48.681912	-59.650790	-61.283907
8.10	-51.486914	-60.631391	-61.519131
8.20	-53.827372	-61.056961	-61.538244
8.30	-55.021768	-61.250553	-61.314671
8.40	-55.459328	-61.489343	-61.115003
8.50	-55.896182	-61.702541	-60.810105
8.60	-56.459099	-61.959929	-60.301955
8.70	-56.966632	-62.109961	-59.898458
8.80	-57.262444	-62.055328	-59.606395
8.90	-57.354390	-61.770327	-59.246271
9.00	-57.376046	-61.544614	-58.432872
9.10	-57.439914	-61.343946	-57.792933
9.20	-57.595056	-60.815042	-57.197346
9.30	-57.717179	-60.260333	-56.528133
9.40	-57.931274	-59.899618	-55.784033
9.50	-58.078975	-59.333999	-55.075171
9.60	-58.089415	-58.701131	-54.275352
9.70	-57.724461	-58.026363	-53.288358
9.80	-57.315501	-57.000601	-52.177520
9.90	-56.950848	-55.925031	-50.409700
10.00	-56.368432	-54.618100	-48.624818
10.10	-55.711886	-53.760934	-47.140391
10.20	-54.945980	-52.784796	-45.378822
10.30	-54.329576	-51.862361	-43.084217
10.40	-53.657616	-50.975720	-42.594647
10.50	-52.712158	-50.088975	-43.152473
10.60	-51.255711	-49.616545	-45.152919
10.70	-48.830666	-49.561065	-47.612826
10.80	-46.000523	-48.929291	-48.670384
10.90	-44.295021	-48.178393	-47.469265
11.00	-41.943787	-47.486193	-46.461880
11.10	-42.481914	-46.544015	-45.979302
11.20	-42.422843	-46.174556	-46.330435
11.30	-43.788931	-45.282987	-46.427390
11.40	-45.111173	-43.507442	-46.739461
11.50	-45.421233	-42.831947	-46.661371
11.60	-46.948277	-43.583159	-48.166852
11.70	-47.994613	-44.885317	-49.864185
11.80	-49.529294	-47.309213	-51.899067
11.90	-50.360832	-48.524722	-53.313035
12.00	-50.523792	-50.288549	-53.956056
12.10	-50.877327	-52.240651	-54.046458
12.20	-51.286912	-53.995166	-53.336851
12.30	-51.714746	-54.926321	-52.209869
12.40	-52.465206	-54.984141	-51.742182
12.50	-52.595898	-54.276030	-51.623008
12.60	-52.320083	-53.325955	-51.594565
12.70	-50.841769	-52.642994	-51.190992
12.80	-49.644426	-52.060585	-50.844494
12.90	-48.596154	-51.761222	-50.331979
13.00	-47.988544	-51.267427	-50.296560
13.10	-48.416648	-50.342361	-49.833922
13.20	-48.434077	-49.289213	-49.495167
13.30	-49.063452	-48.825075	-48.575403
13.40	-47.983694	-49.300354	-48.981213
13.50	-46.534487	-50.359540	-49.572449
13.60	-45.971301	-51.232938	-50.702385
13.70	-46.451897	-51.511835	-51.472772
13.80	-48.060022	-50.823864	-52.153543
13.90	-49.527007	-49.316756	-52.325830
14.00	-49.897505	-48.455884	-51.878891
14.10	-50.504824	-47.102709	-51.484130
14.20	-51.083711	-46.178830	-50.587517
14.30	-52.062574	-46.439048	-50.234901
14.40	-52.635086	-47.289894	-49.443504
14.50	-52.694301	-48.771260	-48.182638
14.60	-52.525332	-50.005942	-47.262870
14.70	-52.520211	-50.383583	-46.578624
14.80	-52.906703	-49.916007	-46.288297
14.90	-53.290716	-50.122360	-45.514947
15.00	-53.174379	-49.876636	-44.765219
15.10	-52.575481	-50.784062	-44.571356
15.20	-50.961042	-51.423865	-45.522980
15.30	-49.091067	-51.826678	-47.401963
15.40	-48.041705	-51.305141	-49.182785
15.50	-47.541648	-50.496407	-50.686918
15.60	-47.561020	-49.736523	-52.038642
15.70	-47.967312	-49.647539	-52.832159
15.80	-47.972593	-49.798933	-53.408087
15.90	-47.945618	-49.945689	-53.478601
16.00	-47.609122	-49.566236	-52.895882
16.10	-46.947432	-48.783351	-51.444042
16.20	-47.440347	-48.769254	-50.670641
16.30	-48.168956	-48.904093	-49.393561
16.40	-49.245200	-49.431465	-50.054969
16.50	-49.626139	-48.946468	-50.961312
16.60	-48.401654	-49.290632	-52.165826
16.70	-47.325805	-49.396267	-53.292481
16.80	-46.175514	-50.908418	-53.774688
16.90	-45.837137	-51.954030	-53.848459
17.00	-46.711441	-52.445739	-53.444564
17.10	-47.292055	-52.167652	-52.886902
17.20	-48.405719	-51.112488	-51.801009
17.30	-48.117287	-48.956639	-51.019656
17.40	-49.010685	-48.295210	-49.918376
17.50	-49.041582	-47.448191	-49.741057
17.60	-50.869793	-48.127913	-48.953386
17.70	-52.128535	-48.909671	-48.404660
17.80	-53.025178	-49.861124	-48.108557
17.90	-53.124665	-50.642616	-48.762737
18.00	-53.029780	-51.562101	-49.787184
18.10	-52.612085	-51.711256	-51.188663
18.20	-52.266115	-51.622315	-51.967525
18.30	-51.511751	-51.056061	-51.990192
18.40	-50.861167	-50.813434	-50.966196
18.50	-49.602924	-50.281896	-49.947811
18.60	-48.590412	-50.126326	-49.589033
18.70	-48.083223	-49.444033	-49.738333
18.80	-47.857921	-49.381650	-50.519808
18.90	-48.241425	-48.333074	-51.337542
19.00	-48.423763	-48.240028	-51.982943
19.10	-48.799978	-48.375056	-52.375730
19.20	-49.055543	-49.442188	-52.122139
19.30	-48.845717	-50.437422	-50.912333
19.40	-48.383084	-50.730633	-48.962830
19.50	-46.248131	-50.073832	-48.501857
19.60	-45.289921	-48.404408	-48.392759
19.70	-44.742603	-46.253355	-49.255574
19.80	-45.840103	-45.240779	-49.414610
19.90	-47.285148	-44.435198	-49.103197
20.00	-48.611942	-44.676365	-48.547603
20.10	-48.925882	-45.338557	-48.781540
20.20	-49.546020	-46.634720	-48.758281
20.30	-49.725954	-48.152915	-49.305960
20.40	-50.978746	-49.911688	-49.756040
20.50	-51.623616	-51.217766	-50.753649
20.60	-51.960853	-52.234942	-51.554582
20.70	-51.690748	-52.981152	-52.207860
20.80	-51.523083	-53.257042	-52.195299
20.90	-51.732546	-52.884790	-50.974062
21.00	-52.359805	-51.529022	-50.332069
21.10	-52.757520	-50.235916	-49.179121
21.20	-52.765438	-49.570453	-49.388931
21.30	-51.867505	-49.289077	-49.940270
21.40	-50.908695	-50.086564	-50.740303
21.50	-49.794959	-50.522158	-51.548756
21.60	-48.457167	-50.947857	-51.919343
21.70	-46.731302	-51.457272	-51.767935
21.80	-45.182038	-51.601943	-51.310517
21.90	-44.980800	-51.356571	-51.082136
22.00	-46.130273	-51.090061	-51.025141
22.10	-47.704406	-50.473697	-50.686301
22.20	-48.771395	-49.810484	-50.750030
22.30	-49.552181	-49.019483	-50.435620
22.40	-49.935493	-48.246426	-50.881700
22.50	-49.957067	-47.384725	-50.806526
22.60	-50.298095	-46.776795	-49.919493
22.70	-50.291445	-47.346284	-49.863063
22.80	-50.700247	-47.930902	-49.657453
22.90	-50.584671	-49.799017	-50.113511
23.00	-50.029015	-50.850848	-50.581356
23.10	-49.677668	-51.827938	-50.503077
23.20	-49.762130	-52.197854	-50.527204
23.30	-50.120803	-52.247810	-50.470116
23.40	-49.804969	-52.545051	-50.342497
23.50	-50.121348	-52.215631	-50.000448
23.60	-49.911156	-51.826308	-49.953554
23.70	-49.882886	-51.417482	-49.821017
23.80	-49.676632	-50.523008	-50.346507
23.90	-49.248992	-49.718180	-50.186036
24.00	-48.814195	-48.803312	-50.619050
24.10	-49.193290	-47.485588	-50.632663
24.20	-49.221520	-47.051145	-50.701229
24.30	-49.485251	-47.196150	-49.735544
24.40	-49.138984	-47.961752	-48.492306
24.50	-47.618412	-47.864942	-48.037651
24.60	-47.128045	-48.878151	-48.549874
24.70	-47.143141	-49.446651	-49.710563
24.80	-48.211916	-51.136863	-50.408402
24.90	-48.536586	-52.261751	-51.186409
25.00	-49.287946	-52.586672	-51.563877
25.10	-49.305352	-52.070164	-51.602428
25.20	-49.740884	-51.235658	-51.545729
25.30	-49.505201	-50.512150	-50.747575
25.40	-49.064309	-50.121560	-51.127687
25.50	-48.826594	-49.683562	-51.590053
25.60	-48.534162	-48.688127	-52.476636
25.70	-47.856353	-47.930424	-52.379880
25.80	-47.237772	-46.789677	-51.663922
25.90	-47.285463	-46.228057	-50.775039
26.00	-47.787606	-45.657712	-50.706638
26.10	-48.593586	-46.475710	-51.070129
26.20	-49.240881	-47.533325	-52.059414
26.30	-49.983251	-48.863095	-52.596548
26.40	-50.976804	-49.837811	-52.135476
26.50	-51.524222	-50.712928	-51.056999
26.60	-51.941842	-51.650590	-50.308135
26.70	-52.136169	-52.463324	-49.692676
26.80	-52.643191	-52.680587	-49.708926
26.90	-53.311314	-51.908393	-50.318321
27.00	-53.781355	-50.799800	-50.993734
27.10	-53.780884	-49.717418	-51.675114
27.20	-53.277534	-48.279087	-51.502448
27.30	-52.455077	-48.371297	-50.756048
27.40	-50.896857	-49.045812	-50.579295
27.50	-49.715734	-50.756033	-50.329150
27.60	-48.567160	-52.378500	-51.494664
27.70	-48.466626	-53.206990	-52.059560
27.80	-47.682461	-53.212214	-52.570664
27.90	-46.969925	-53.043941	-52.411156
28.00	-46.904162	-52.750167	-51.686601
28.10	-46.822606	-52.372444	-50.323316
28.20	-46.779085	-51.895993	-50.295715
28.30	-46.282930	-51.323487	-50.287923
28.40	-46.238289	-51.083928	-51.134429
28.50	-47.115182	-51.222286	-51.553575
28.60	-47.814132	-51.371032	-51.187753
28.70	-48.520424	-51.705189	-50.944917
28.80	-48.757707	-51.791890	-50.465443
28.90	-49.099187	-51.808406	-50.059050
29.00	-49.804501	-51.107935	-50.082215
29.10	-50.465820	-50.176294	-49.374254
29.20	-51.645970	-49.514338	-49.575052
29.30	-52.588933	-49.848293	-49.591750
29.40	-53.256802	-50.414749	-50.371913
29.50	-53.435724	-50.949556	-50.950975
29.60	-53.461545	-50.458182	-51.355388
29.70	-52.911662	-50.012551	-51.322199
29.80	-52.336557	-49.258831	-51.205424
29.90	-51.927449	-49.170487	-50.860526
30.00	-51.654931	-48.657714	-50.075393
30.10	-52.317628	-48.986846	-50.082723
30.20	-52.776110	-48.626432	-50.025714
30.30	-53.357541	-49.468827	-50.650161
30.40	-53.502943	-49.708759	-50.574076
30.50	-53.289805	-49.939150	-50.252060
30.60	-52.929518	-50.051726	-49.587842
30.70	-52.248471	-49.605387	-49.763042
30.80	-51.256071	-48.567920	-49.902316
30.90	-49.836418	-46.949357	-50.595275
31.00	-48.973043	-45.797640	-50.575896
31.10	-48.619677	-46.134668	-50.368559
31.20	-48.354219	-47.733355	-49.567827
31.30	-48.590770	-49.670314	-49.480159
31.40	-47.745680	-51.811589	-49.357158
31.50	-46.841860	-52.819146	-49.414255
31.60	-47.192427	-53.198104	-48.605618
31.70	-47.635781	-53.479491	-47.870560
31.80	-48.707608	-52.802851	-46.716786
31.90	-48.581938	-53.199966	-46.628531
32.00	-48.093565	-52.859248	-46.862026
32.10	-47.622340	-52.501180	-48.164901
32.20	-47.385325	-52.539513	-49.810474
32.30	-47.744276	-52.118162	-51.535484
32.40	-47.934778	-51.437993	-52.924377
32.50	-47.303791	-50.198394	-53.942216
32.60	-47.653731	-49.970614	-54.336202
32.70	-48.210950	-49.873426	-53.873268
32.80	-49.250136	-50.669397	-52.968575
32.90	-50.377726	-50.543728	-52.322953
33.00	-50.920840	-50.497335	-52.384874
33.10	-51.919928	-50.293783	-52.800390
33.20	-52.545188	-49.932671	-53.195412
33.30	-53.407336	-48.940255	-52.871180
33.40	-53.391907	-48.449941	-52.049139
33.50	-52.669271	-48.221783	-50.960421
33.60	-51.817149	-49.275437	-50.243346
33.70	-50.153767	-50.244198	-49.293284
33.80	-49.579866	-50.277086	-49.597936
33.90	-48.551080	-49.766167	-49.865693
34.00	-48.739757	-48.979370	-50.543815
34.10	-49.322587	-48.846313	-50.922172
34.20	-49.997426	-48.832678	-50.923678
34.30	-50.607501	-49.056264	-51.249898
34.40	-50.851886	-49.518162	-50.934151
34.50	-50.860388	-49.783916	-50.578860
34.60	-50.746924	-49.999203	-49.952381
34.70	-51.148895	-50.036661	-48.469667
34.80	-51.007026	-49.280747	-47.543243
34.90	-50.355948	-49.912585	-46.507171
35.00	-50.448443	-50.201984	-47.231794
35.10	-50.193079	-51.150397	-48.539953
35.20	-50.806618	-51.497773	-50.686232
35.30	-50.673595	-51.003019	-52.415662
35.40	-50.515769	-51.055278	-54.023444
35.50	-49.716504	-50.890003	-54.883913
35.60	-49.345803	-51.199427	-55.176625
35.70	-48.244576	-51.528082	-54.896422
35.80	-46.378446	-51.956426	-54.753254
35.90	-45.002358	-52.288327	-54.162154
36.00	-44.219171	-52.457776	-52.958225
36.10	-44.403837	-52.742037	-51.608123
36.20	-45.341059	-52.456099	-51.028697
36.30	-46.077091	-52.200724	-50.371332
36.40	-47.219718	-52.154232	-50.083538
36.50	-48.278021	-51.255646	-49.370998
36.60	-48.923021	-50.885814	-49.244428
36.70	-49.901787	-50.508022	-49.214606
36.80	-50.399181	-50.897241	-50.399983
36.90	-51.215097	-51.418973	-50.994954
37.00	-51.970499	-51.984227	-50.768644
37.10	-52.612590	-51.902498	-50.565422
37.20	-53.003099	-51.407398	-50.398206
37.30	-53.004435	-50.804372	-50.894791
37.40	-52.279454	-50.633319	-50.814700
37.50	-51.039398	-50.263602	-50.444932
37.60	-48.520394	-49.990645	-50.009935
37.70	-48.023220	-49.394479	-50.337151
37.80	-47.675398	-48.410543	-50.823733
37.90	-49.386728	-48.427306	-50.914737
38.00	-50.758600	-48.302671	-51.206199
38.10	-52.488195	-49.626252	-50.961712
38.20	-53.318774	-50.737466	-50.447311
38.30	-54.215489	-52.195044	-49.367630
38.40	-54.721740	-53.040132	-48.707910
38.50	-54.550490	-54.040245	-48.274052
38.60	-53.944933	-54.370387	-48.780498
38.70	-53.217500	-53.968825	-49.737216
38.80	-52.911637	-53.676790	-50.491540
38.90	-52.615070	-53.148926	-50.802167
39.00	-52.629038	-53.022270	-50.733423
39.10	-52.359180	-52.535303	-49.991064
39.20	-51.515388	-51.380622	-50.251906
39.30	-49.716693	-50.290535	-51.253173
39.40	-48.713821	-48.042824	-52.412664
39.50	-47.716764	-47.223678	-53.478787
39.60	-48.263804	-46.233791	-54.033689
39.70	-48.498119	-46.018116	-53.939842
39.80	-48.662541	-45.902867	-53.606921
39.90	-48.388177	-46.653999	-53.321081
40.00	-48.135255	-47.158794	-52.623970
40.10	-48.533669	-48.623711	-52.171222
40.20	-49.442645	-48.788809	-50.969178
40.30	-50.160248	-49.336722	-49.329050
40.40	-50.354519	-49.189005	-48.824013
40.50	-50.143102	-49.403086	-48.985111
40.60	-49.998565	-49.647741	-50.190489
40.70	-49.500463	-49.967997	-50.564305
40.80	-47.737471	-50.208401	-50.486424
40.90	-46.871987	-50.451026	-50.639431
41.00	-45.526269	-50.967739	-51.016355
41.10	-45.740987	-51.833327	-51.408365
41.20	-46.397096	-52.275206	-51.554273
41.30	-47.013100	-52.723338	-51.368684
41.40	-48.224711	-52.802355	-51.629170
41.50	-49.982443	-52.879945	-51.907878
41.60	-51.749122	-53.100087	-52.282284
41.70	-53.499025	-52.918402	-51.875144
41.80	-54.700789	-52.934136	-51.554504
41.90	-55.256304	-52.097611	-51.186760
42.00	-55.144992	-52.098860	-51.736868
42.10	-54.347370	-52.138821	-52.414652
42.20	-53.718994	-52.735929	-52.968427
42.30	-52.600185	-52.955435	-52.796879
42.40	-52.185118	-52.747292	-52.097539
42.50	-51.582210	-52.235818	-51.930813
42.60	-51.337725	-51.618514	-51.775059
42.70	-50.832206	-50.481984	-51.855674
42.80	-50.768412	-49.875762	-51.361975
42.90	-50.316984	-49.665527	-50.252706
43.00	-50.290635	-50.104035	-49.144297
43.10	-49.716000	-50.861830	-47.966749
43.20	-50.357828	-51.534773	-47.291764
43.30	-50.794273	-51.646447	-47.631387
43.40	-51.286165	-52.046356	-47.911227
43.50	-51.595936	-51.889272	-49.052160
43.60	-51.194915	-51.269374	-50.197389
43.70	-50.789771	-50.686398	-51.093549
43.80	-50.127180	-50.356506	-51.554182
43.90	-49.364238	-50.213176	-51.454449
44.00	-48.114308	-50.236413	-50.886999
44.10	-47.786578	-50.219587	-50.469056
44.20	-48.241606	-49.413562	-49.987903
44.30	-49.576660	-49.040983	-49.034586
44.40	-51.009641	-48.203266	-47.973280
44.50	-51.470312	-47.973183	-47.850931
44.60	-51.115707	-48.466711	-48.528889
44.70	-50.163157	-49.037532	-50.289153
44.80	-50.231156	-50.093008	-51.693537
44.90	-50.182806	-50.672110	-52.543808
45.00	-51.228701	-51.220468	-52.593826
45.10	-51.823222	-51.869868	-52.129099
45.20	-52.333047	-52.710287	-51.535908
45.30	-52.656805	-53.528197	-51.529390
45.40	-52.457717	-53.991791	-51.684488
45.50	-52.028550	-53.903716	-51.940153
45.60	-51.212655	-53.408857	-51.535848
45.70	-50.527983	-53.256295	-51.756927
45.80	-50.334494	-52.870153	-52.053491
45.90	-49.457416	-52.607941	-52.710628
46.00	-49.705900	-51.931848	-52.862843
46.10	-50.181442	-51.222452	-52.879676
46.20	-51.004919	-50.879413	-52.570013
46.30	-52.339967	-50.304633	-52.308042
46.40	-52.992930	-50.394533	-52.075625
46.50	-52.931339	-50.175116	-52.258793
46.60	-51.815272	-50.695254	-52.726542
46.70	-50.751359	-50.794476	-53.470756
46.80	-49.191441	-51.932189	-53.759540
46.90	-48.227164	-52.575094	-53.400169
47.00	-46.782677	-53.465215	-52.554206
47.10	-47.387329	-53.812758	-51.077586
47.20	-47.709724	-53.345821	-49.135449
47.30	-48.938701	-52.861837	-47.284023
47.40	-49.235294	-52.739998	-46.098723
47.50	-49.742218	-52.959730	-46.254488
47.60	-49.835971	-52.921943	-47.664782
47.70	-49.521949	-52.084670	-49.158129
47.80	-49.461053	-50.021203	-49.982919
47.90	-48.583350	-49.520956	-50.373930
48.00	-48.040661	-49.675483	-50.290277
48.10	-48.161473	-51.439169	-50.414434
48.20	-49.017485	-53.254204	-50.521393
48.30	-50.422938	-54.481312	-50.837871
48.40	-51.563640	-54.976744	-50.552726
48.50	-52.988080	-54.896716	-50.484583
48.60	-53.859880	-54.218463	-49.948720
48.70	-54.532629	-53.129061	-50.176953
48.80	-54.725364	-52.055303	-50.952120
48.90	-54.207024	-50.530713	-52.329845
49.00	-52.996646	-49.640495	-53.367506
49.10	-51.621727	-49.236345	-53.632947
49.20	-51.121231	-49.945979	-53.887153
49.30	-51.509382	-50.971551	-53.963387
49.40	-52.520721	-51.706838	-54.468474
49.50	-53.128307	-50.927178	-54.498556
49.60	-52.917046	-50.148372	-54.283845
49.70	-52.829902	-49.196807	-53.861942
49.80	-52.886832	-49.036354	-53.857854
49.90	-53.604934	-48.642112	-53.946249
50.00	-54.195452	-48.062601	-54.479480
50.10	-54.422022	-47.166484	-54.822748
50.20	-54.462312	-47.481051	-54.941190
50.30	-54.247719	-47.967668	-54.670031
50.40	-53.820478	-49.000734	-54.280519
50.50	-53.084417	-50.224730	-53.737830
50.60	-51.527938	-50.524207	-53.303841
50.70	-50.190599	-50.775570	-52.921200
50.80	-49.157660	-51.210841	-52.742364
50.90	-48.251925	-52.103801	-52.747912
51.00	-48.013099	-53.433544	-52.402762
51.10	-47.013427	-54.491234	-51.467577
51.20	-47.035328	-54.889221	-50.358755
51.30	-46.126345	-54.765427	-48.751580
51.40	-46.663495	-54.096731	-47.446861
51.50	-47.171082	-53.232817	-45.937849
51.60	-48.223589	-52.674005	-45.692853
51.70	-49.593109	-52.025058	-46.007916
51.80	-50.882617	-51.714540	-47.168391
51.90	-51.598282	-51.142851	-48.336305
52.00	-51.941907	-50.352588	-48.406055
52.10	-51.622076	-48.751519	-47.351153
52.20	-50.959053	-48.457947	-46.867772
52.30	-49.609629	-47.721002	-47.122604
52.40	-49.214644	-48.252075	-48.812304
52.50	-49.416501	-48.892330	-50.355164
52.60	-50.579907	-49.408853	-51.470014
52.70	-51.629935	-50.081548	-52.335099
52.80	-52.335850	-51.173268	-52.743111
52.90	-52.565748	-51.970602	-53.283952
53.00	-53.301285	-52.247173	-53.765806
53.10	-53.958853	-52.379383	-53.918771
53.20	-54.397825	-52.097676	-54.031301
53.30	-54.298573	-52.445509	-54.297660
53.40	-53.592615	-52.393236	-54.368613
53.50	-51.893168	-52.775780	-53.889942
53.60	-50.796170	-53.157169	-52.497236
53.70	-49.684732	-53.758388	-51.956017
53.80	-49.931956	-53.981744	-51.112195
53.90	-50.358098	-53.865417	-51.647241
54.00	-51.031905	-53.234737	-52.059755
54.10	-51.746160	-51.634233	-52.550232
54.20	-52.445427	-50.973847	-52.127375
54.30	-52.607361	-49.725739	-51.429543
54.40	-52.088442	-49.969394	-50.437971
54.50	-50.599031	-49.323636	-50.817258
54.60	-48.799992	-49.929194	-51.411603
54.70	-47.365965	-50.597623	-52.393949
54.80	-46.979753	-51.897308	-52.340246
54.90	-47.552476	-52.823537	-52.471717
55.00	-48.134010	-52.766279	-52.156836
55.10	-48.727518	-51.922471	-51.657811