# TStellate2_CT1 Optimisation
# 20130903+16:43:47
 
#param.w.x[lsr][ts] = 0.0016202	[1e-07,0.3]
#param.w.x[hsr][ts] = 0.00088558	[1e-07,0.3]
#param.w.x[ds][ts] = 0.00040527	[1e-07,0.3]
#param.w.x[tv][ts] = 0.00032426	[1e-07,0.3]
#param.w.x[glg][ts] = 0.00014179	[1e-07,0.3]
# final error=81.288807
# Threshold level 20 
# Threshold rate 0 
# TS exemplar RMP -60.9
# TS exemplar CF 9100
# CV RMS errors:	3.645	7.615	7.797	
# CV Penalties :	0	0	0	0	10.02	0	0	0	0	0	0	10.06	0	0	0	0	0	0	10.07	10.28	10.47	
# IV RMS errors:	3.794	3.765	3.781	
# IV Penalties :	
# Final Error  81.2888   81.2888
# Time	 IV @spl=20 (mV)	 IV @spl=30 (mV)	 IV @spl=40 (mV)
-20.00	-65.000000	-65.000000	-65.000000
-19.90	-64.766934	-64.766934	-64.766934
-19.80	-64.545736	-64.545736	-64.545736
-19.70	-64.335646	-64.335646	-64.335646
-19.60	-64.136115	-64.136115	-64.136115
-19.50	-63.946649	-63.946649	-63.946649
-19.40	-63.766647	-63.766647	-63.766647
-19.30	-63.595652	-63.595652	-63.595652
-19.20	-63.433250	-63.433250	-63.433250
-19.10	-63.279047	-63.279047	-63.279047
-19.00	-63.132590	-63.132590	-63.132590
-18.90	-62.993458	-62.993458	-62.993458
-18.80	-62.861308	-62.861308	-62.861308
-18.70	-62.735827	-62.735827	-62.735827
-18.60	-62.616717	-62.616717	-62.616717
-18.50	-62.503695	-62.503695	-62.503695
-18.40	-62.396372	-62.396372	-62.396372
-18.30	-62.294460	-62.294460	-62.294460
-18.20	-62.197712	-62.197712	-62.197712
-18.10	-62.105895	-62.105895	-62.105895
-18.00	-62.018788	-62.018788	-62.018788
-17.90	-61.936179	-61.936179	-61.936179
-17.80	-61.857864	-61.857864	-61.857864
-17.70	-61.783649	-61.783649	-61.783649
-17.60	-61.713277	-61.713277	-61.713277
-17.50	-61.646526	-61.646526	-61.646526
-17.40	-61.583227	-61.583227	-61.583227
-17.30	-61.523219	-61.487439	-61.523219
-17.20	-61.466349	-61.405302	-61.466349
-17.10	-61.392889	-61.333671	-61.412473
-17.00	-61.308399	-61.270363	-61.341881
-16.90	-61.216893	-61.213794	-61.260131
-16.80	-61.140849	-61.143292	-61.190772
-16.70	-61.041144	-61.063655	-61.131071
-16.60	-60.941740	-60.997857	-61.020931
-16.50	-60.862912	-60.942772	-60.914236
-16.40	-60.780207	-60.896122	-60.810897
-16.30	-60.676221	-60.836754	-60.730456
-16.20	-60.559415	-60.788483	-60.628965
-16.10	-60.432664	-60.671817	-60.532765
-16.00	-60.280372	-60.548280	-60.460218
-15.90	-60.150089	-60.417947	-60.308865
-15.80	-59.998626	-60.226923	-60.160476
-15.70	-59.853312	-60.069368	-59.938623
-15.60	-59.655939	-59.879035	-59.706980
-15.50	-59.499237	-59.705801	-59.506785
-15.40	-59.354629	-59.564156	-59.292350
-15.30	-59.220524	-59.446298	-59.105386
-15.20	-59.131868	-59.328023	-58.958117
-15.10	-59.019059	-59.211202	-58.801937
-15.00	-58.872706	-59.079229	-58.661286
-14.90	-58.628159	-58.934016	-58.457688
-14.80	-58.407235	-58.762920	-58.247370
-14.70	-58.205233	-58.589614	-58.026265
-14.60	-57.997783	-58.419633	-57.815382
-14.50	-57.768720	-58.231860	-57.627310
-14.40	-57.524136	-58.090677	-57.437749
-14.30	-57.316219	-57.894436	-57.241814
-14.20	-57.127931	-57.715148	-56.992278
-14.10	-56.985844	-57.544031	-56.690174
-14.00	-56.835213	-57.319946	-56.343877
-13.90	-56.614935	-57.110830	-55.629623
-13.80	-56.394820	-56.922267	-54.891982
-13.70	-56.085221	-56.707477	-54.398325
-13.60	-55.627265	-56.497559	-54.023830
-13.50	-54.756718	-56.318161	-54.217042
-13.40	-53.077988	-56.020120	-54.201370
-13.30	-52.309684	-55.666909	-54.923034
-13.20	-52.313976	-55.089794	-55.355992
-13.10	-53.533317	-53.843683	-56.163976
-13.00	-54.591042	-52.622653	-56.663262
-12.90	-55.053435	-51.724445	-56.843710
-12.80	-55.384307	-50.614043	-56.837995
-12.70	-55.742019	-51.215382	-56.660059
-12.60	-56.076649	-52.148168	-56.261076
-12.50	-55.854525	-54.289354	-55.335755
-12.40	-55.801300	-56.032141	-54.687486
-12.30	-55.696310	-57.127320	-54.438733
-12.20	-56.109778	-57.619502	-54.983218
-12.10	-56.444567	-57.752794	-55.962472
-12.00	-56.550318	-57.783432	-56.780173
-11.90	-56.359062	-57.656279	-57.174465
-11.80	-55.942676	-57.510954	-57.241657
-11.70	-55.228689	-57.350930	-57.069733
-11.60	-54.222510	-57.116590	-56.482218
-11.50	-53.299445	-56.560683	-56.120530
-11.40	-53.221228	-56.260756	-55.745628
-11.30	-53.319595	-56.167718	-55.466874
-11.20	-53.623414	-56.548199	-55.883466
-11.10	-53.615565	-57.000683	-56.202035
-11.00	-53.233059	-57.286789	-56.901393
-10.90	-52.437059	-57.347905	-57.434546
-10.80	-51.916473	-57.233141	-57.716414
-10.70	-51.918414	-56.969929	-57.786286
-10.60	-52.892466	-56.243668	-57.769745
-10.50	-54.310736	-56.144339	-57.594197
-10.40	-55.312818	-55.992557	-57.309912
-10.30	-55.663180	-56.506220	-56.913428
-10.20	-55.743364	-56.897176	-56.201568
-10.10	-56.351795	-57.031547	-55.899629
-10.00	-57.039152	-56.953825	-55.676176
-9.90	-57.828123	-56.547837	-55.966509
-9.80	-58.046828	-56.051508	-56.214411
-9.70	-57.415291	-55.966445	-56.306500
-9.60	-57.041005	-56.165791	-56.083448
-9.50	-56.971314	-56.676654	-55.379678
-9.40	-57.825508	-57.066787	-54.893445
-9.30	-58.766206	-57.275589	-54.579874
-9.20	-59.335359	-57.331902	-54.638232
-9.10	-59.581722	-57.331382	-54.444279
-9.00	-59.578515	-57.277671	-53.859980
-8.90	-59.475563	-57.131741	-53.099238
-8.80	-59.316999	-56.912980	-52.144986
-8.70	-59.124047	-56.720616	-52.082335
-8.60	-58.915598	-56.467802	-52.650363
-8.50	-58.669728	-56.091045	-53.708658
-8.40	-58.395127	-55.681577	-55.038462
-8.30	-58.067225	-54.759948	-55.971168
-8.20	-57.626360	-54.490692	-56.992817
-8.10	-56.889611	-54.192646	-57.673262
-8.00	-56.399888	-54.504720	-58.040054
-7.90	-55.926309	-54.644460	-58.097124
-7.80	-55.490623	-54.351397	-57.963847
-7.70	-55.138453	-53.560356	-57.509941
-7.60	-55.379337	-52.817106	-56.333680
-7.50	-56.180144	-51.448198	-56.167168
-7.40	-57.345863	-50.997315	-56.070383
-7.30	-58.116961	-50.069941	-57.188223
-7.20	-58.443029	-51.054213	-58.163973
-7.10	-58.514672	-51.661351	-58.681691
-7.00	-58.472556	-53.521920	-58.923906
-6.90	-58.386258	-54.755647	-58.982952
-6.80	-58.219989	-56.095195	-58.987670
-6.70	-58.014118	-56.913958	-58.954154
-6.60	-57.805534	-57.348576	-58.842652
-6.50	-57.497093	-57.486622	-58.662241
-6.40	-57.021001	-57.476756	-58.476219
-6.30	-56.470235	-57.333153	-58.178974
-6.20	-56.387975	-57.044506	-57.772677
-6.10	-56.585632	-56.558096	-57.064902
-6.00	-57.101907	-55.457186	-56.915759
-5.90	-57.379443	-54.161922	-56.745644
-5.80	-57.410504	-53.585261	-57.106367
-5.70	-57.388069	-53.819264	-56.773501
-5.60	-57.262222	-55.205469	-57.042492
-5.50	-57.057045	-56.538736	-57.160373
-5.40	-56.680381	-57.252970	-57.664098
-5.30	-56.158133	-57.311557	-58.193264
-5.20	-56.148967	-56.843953	-58.467135
-5.10	-56.202104	-56.804643	-58.239348
-5.00	-56.822960	-56.718965	-57.787084
-4.90	-57.225457	-57.154182	-57.760094
-4.80	-57.505547	-57.008113	-57.925783
-4.70	-57.628516	-57.248803	-58.463976
-4.60	-57.687273	-57.335004	-58.821099
-4.50	-57.713244	-57.980322	-58.969701
-4.40	-57.681992	-58.386770	-58.962819
-4.30	-57.558937	-58.559385	-58.870640
-4.20	-57.409225	-58.572320	-58.809876
-4.10	-57.248983	-58.472969	-58.737344
-4.00	-57.030248	-58.278603	-58.595128
-3.90	-56.713988	-58.016052	-58.390852
-3.80	-56.356908	-57.491327	-58.114605
-3.70	-55.791146	-56.920208	-57.637784
-3.60	-55.410283	-56.773903	-56.934446
-3.50	-55.282680	-56.911417	-56.773525
-3.40	-55.599172	-57.312409	-56.691151
-3.30	-55.827673	-57.546936	-57.105734
-3.20	-55.613768	-57.508266	-57.369532
-3.10	-55.332650	-57.248762	-57.510333
-3.00	-55.072557	-56.802849	-57.488840
-2.90	-54.847677	-55.944615	-57.368776
-2.80	-55.350208	-55.058938	-57.268518
-2.70	-55.635268	-54.905238	-57.102675
-2.60	-56.311708	-55.301284	-56.883831
-2.50	-56.802231	-56.345144	-56.655439
-2.40	-56.994751	-57.103338	-56.425227
-2.30	-57.075577	-57.534527	-56.146282
-2.20	-57.096265	-57.706339	-55.734593
-2.10	-57.001205	-57.721220	-55.028443
-2.00	-56.821489	-57.655427	-53.498517
-1.90	-56.628659	-57.506517	-53.141722
-1.80	-56.400385	-57.324901	-52.693944
-1.70	-56.139044	-57.034252	-53.286099
-1.60	-55.723164	-56.440750	-53.684998
-1.50	-54.757833	-55.088930	-53.642191
-1.40	-54.317162	-54.948795	-53.842038
-1.30	-53.500056	-54.752370	-54.301296
-1.20	-53.906850	-55.790998	-55.266003
-1.10	-54.236913	-56.542284	-56.344195
-1.00	-54.997954	-56.963910	-57.174833
-0.90	-55.325729	-56.994004	-57.602120
-0.80	-54.908218	-56.858695	-57.698222
-0.70	-54.939656	-56.526439	-57.507312
-0.60	-54.839741	-55.785935	-56.821810
-0.50	-55.283070	-54.726738	-56.778945
-0.40	-55.576896	-54.637501	-56.742389
-0.30	-55.550395	-54.799084	-57.254572
-0.20	-55.106079	-55.914827	-57.621138
-0.10	-54.439834	-56.641155	-57.771684
0.00	-54.049944	-57.028817	-57.695176
0.10	-53.676582	-57.119967	-57.448851
0.20	-53.726810	-56.949905	-56.794720
0.30	-53.684928	-56.254320	-55.942623
0.40	-53.433299	-56.093643	-55.447726
0.50	-53.256900	-55.908006	-55.696482
0.60	-52.866004	-56.110232	-56.450562
0.70	-52.829120	-55.996440	-57.345203
0.80	-53.217978	-56.230709	-57.783724
0.90	-54.192776	-56.272796	-57.942072
1.00	-55.226926	-56.736285	-57.853105
1.10	-56.562732	-56.627918	-57.683501
1.20	-57.300393	-56.498751	-57.290098
1.30	-57.650462	-56.531432	-56.517133
1.40	-57.675050	-56.883263	-56.326227
1.50	-57.273266	-57.394604	-55.805218
1.60	-56.674218	-57.800530	-55.904551
1.70	-56.256111	-57.923767	-56.258592
1.80	-55.788876	-57.849443	-56.635164
1.90	-56.208831	-57.524827	-57.182855
2.00	-56.561988	-56.851780	-57.491371
2.10	-57.226669	-56.306356	-57.653125
2.20	-57.504767	-55.778425	-57.600605
2.30	-57.147462	-56.231743	-57.461959
2.40	-56.897421	-56.784117	-57.011694
2.50	-56.777275	-57.719324	-56.471165
2.60	-57.122353	-58.225216	-56.350022
2.70	-57.626915	-58.537801	-56.506027
2.80	-57.930605	-58.698262	-56.953548
2.90	-57.991499	-58.772955	-57.204914
3.00	-57.936364	-58.793269	-57.290086
3.10	-57.843515	-58.781599	-57.269448
3.20	-57.688574	-58.751314	-57.179599
3.30	-57.509707	-58.654445	-57.011600
3.40	-57.245054	-58.490372	-56.800637
3.50	-56.886430	-58.167087	-56.445989
3.60	-56.268248	-57.888997	-55.913438
3.70	-55.345209	-57.444773	-54.717798
3.80	-54.512022	-56.656673	-54.114951
3.90	-54.211469	-56.215367	-54.008830
4.00	-54.191223	-55.712437	-54.599303
4.10	-55.061777	-55.816278	-55.452465
4.20	-55.729368	-56.259073	-55.611413
4.30	-56.765955	-56.808396	-55.947196
4.40	-57.378010	-57.345932	-55.903931
4.50	-57.683791	-57.646781	-56.109859
4.60	-57.738129	-57.777569	-56.241087
4.70	-57.645309	-57.805223	-56.524075
4.80	-57.375009	-57.750385	-57.009943
4.90	-56.659670	-57.613750	-57.592927
5.00	-56.392368	-57.297929	-57.855612
5.10	-56.226938	-56.510038	-57.908092
5.20	-56.597182	-56.247804	-57.840655
5.30	-56.957828	-55.957902	-57.514281
5.40	-57.172890	-56.047561	-56.984495
5.50	-57.143078	-55.763448	-56.249296
5.60	-56.953102	-54.734606	-55.411327
5.70	-56.663158	-54.530686	-54.850523
5.80	-56.161981	-54.260869	-54.285777
5.90	-55.230409	-54.894864	-54.605526
6.00	-54.415510	-55.758316	-55.074114
6.10	-53.204780	-56.370865	-56.045915
6.20	-52.510244	-57.019286	-56.555571
6.30	-52.585654	-57.246821	-56.585822
6.40	-52.696729	-56.962320	-56.119694
6.50	-52.961473	-56.203069	-55.217342
6.60	-53.365969	-54.931922	-53.491035
6.70	-53.743659	-53.276583	-51.365151
6.80	-54.194492	-51.206573	-49.030620
6.90	-54.090086	-48.090129	-46.175263
7.00	-52.673440	-43.352791	-40.961434
7.10	-49.939220	-37.931607	-34.533690
7.20	-46.519668	-30.859672	-27.609589
7.30	-42.387091	-27.712324	-26.969857
7.40	-35.482965	-29.602296	-31.574601
7.50	-31.712723	-35.152405	-40.413061
7.60	-30.925620	-43.353557	-48.759196
7.70	-35.097043	-49.659998	-54.776811
7.80	-40.861966	-54.544401	-58.058615
7.90	-46.645820	-57.311315	-59.539197
8.00	-50.727411	-59.323372	-60.302353
8.10	-52.755234	-60.576098	-61.040505
8.20	-53.574527	-61.148185	-61.601725
8.30	-54.535175	-61.408783	-61.669920
8.40	-55.296420	-61.640888	-61.556746
8.50	-56.781970	-61.849984	-61.224063
8.60	-57.909760	-62.078960	-60.612804
8.70	-58.577840	-62.184359	-60.106272
8.80	-58.875414	-62.081270	-59.704373
8.90	-58.939280	-61.716463	-59.258072
9.00	-58.935490	-61.418262	-58.366726
9.10	-58.944365	-61.157604	-57.685077
9.20	-59.039946	-60.555054	-57.076904
9.30	-59.086227	-59.951155	-56.400726
9.40	-59.203999	-59.529967	-55.655513
9.50	-59.273306	-58.966515	-54.949525
9.60	-59.205050	-58.328889	-54.159692
9.70	-58.796239	-57.678554	-53.204978
9.80	-58.350927	-56.722371	-52.122206
9.90	-57.944464	-55.779831	-50.545941
10.00	-57.334492	-54.859346	-47.988315
10.10	-56.685065	-53.624545	-45.687100
10.20	-55.970156	-52.654808	-43.459371
10.30	-55.407978	-51.685401	-42.319227
10.40	-54.815847	-50.602722	-41.175055
10.50	-54.021969	-49.894519	-42.205570
10.60	-52.903574	-49.090534	-43.153176
10.70	-51.218605	-48.448503	-45.441387
10.80	-49.114305	-48.479808	-45.992644
10.90	-46.543323	-47.711167	-45.620604
11.00	-44.540135	-45.619072	-44.849590
11.10	-43.583533	-43.839721	-45.304909
11.20	-43.541829	-40.739511	-46.392712
11.30	-44.243092	-40.048452	-48.908026
11.40	-44.525318	-41.253262	-50.229824
11.50	-45.283933	-43.332433	-50.988902
11.60	-45.950131	-45.376032	-51.688612
11.70	-47.016947	-47.785590	-52.400841
11.80	-47.872118	-49.139303	-53.310190
11.90	-47.959269	-51.039421	-54.102446
12.00	-48.012795	-52.344106	-54.078640
12.10	-48.155385	-53.361018	-54.169207
12.20	-49.294991	-54.214095	-54.092044
12.30	-51.072942	-54.616787	-53.727851
12.40	-53.046583	-55.007950	-53.333445
12.50	-54.345138	-54.934617	-52.948461
12.60	-54.391746	-54.256092	-52.536566
12.70	-53.062517	-53.132648	-51.985536
12.80	-51.441277	-52.344088	-51.909256
12.90	-50.438191	-51.368913	-51.401199
13.00	-50.538083	-50.628544	-50.825941
13.10	-51.180063	-49.451057	-50.518740
13.20	-52.142424	-48.675283	-50.041884
13.30	-52.311220	-48.349374	-49.368976
13.40	-51.001815	-49.068956	-49.094998
13.50	-49.019152	-49.766819	-49.253079
13.60	-48.203590	-50.109738	-49.625396
13.70	-48.117588	-49.317683	-49.864494
13.80	-48.962919	-46.459801	-49.258659
13.90	-49.822725	-44.476571	-48.551862
14.00	-49.551593	-43.766268	-47.943855
14.10	-49.107920	-45.200062	-48.005253
14.20	-48.940517	-47.301749	-47.408613
14.30	-48.935337	-49.010481	-46.896609
14.40	-49.411647	-50.409718	-46.124303
14.50	-49.836290	-51.294320	-46.422439
14.60	-50.396746	-52.218750	-46.544873
14.70	-50.598490	-52.177078	-46.262977
14.80	-50.499677	-51.252323	-46.316221
14.90	-49.840755	-50.208201	-45.846529
15.00	-48.058646	-48.955519	-46.528087
15.10	-47.821231	-48.496590	-46.967822
15.20	-47.080051	-48.187479	-47.614273
15.30	-47.218305	-47.987201	-48.090050
15.40	-47.474722	-48.243534	-47.991821
15.50	-48.159924	-48.958651	-46.969699
15.60	-49.563397	-50.073288	-47.408401
15.70	-50.839729	-50.441101	-47.593945
15.80	-51.351949	-50.823080	-48.622396
15.90	-50.454738	-50.848498	-48.697039
16.00	-48.685322	-50.999408	-48.820763
16.10	-47.518597	-51.283283	-49.264957
16.20	-47.086040	-51.115211	-49.764614
16.30	-48.195007	-50.917394	-50.331528
16.40	-49.838563	-50.489547	-50.728549
16.50	-50.834018	-50.349367	-51.251707
16.60	-50.749222	-49.884602	-52.163255
16.70	-50.107630	-50.301755	-52.816235
16.80	-49.389110	-50.815265	-52.999603
16.90	-48.360556	-51.708459	-52.564095
17.00	-47.387042	-52.010334	-52.096153
17.10	-46.256833	-51.539564	-52.050153
17.20	-45.865025	-49.955230	-52.236902
17.30	-46.893929	-49.250567	-52.222750
17.40	-48.033495	-47.990422	-51.670624
17.50	-48.950726	-47.273612	-50.514631
17.60	-48.975736	-47.260468	-49.019108
17.70	-49.139267	-46.854278	-47.194034
17.80	-49.300236	-47.442316	-46.786240
17.90	-49.475440	-47.594964	-46.990782
18.00	-49.134202	-47.913809	-48.120870
18.10	-48.324720	-48.621977	-49.489266
18.20	-48.427073	-48.436266	-50.084404
18.30	-48.590032	-48.835992	-49.856583
18.40	-48.254045	-48.914637	-49.732554
18.50	-48.640619	-49.068730	-49.344348
18.60	-48.586422	-49.887346	-49.243588
18.70	-49.940580	-50.038663	-48.410375
18.80	-50.861878	-50.535428	-47.064615
18.90	-51.584848	-50.475074	-46.849010
19.00	-51.550798	-50.617975	-47.343619
19.10	-50.827807	-50.101522	-48.442819
19.20	-49.777876	-49.215252	-49.412899
19.30	-49.066316	-48.774193	-49.755728
19.40	-48.164415	-48.532030	-50.654668
19.50	-48.108160	-48.609420	-51.467112
19.60	-47.570750	-48.445802	-52.263877
19.70	-47.924144	-47.937847	-52.059294
19.80	-47.997367	-47.694684	-50.680896
19.90	-48.269569	-47.090094	-49.142134
20.00	-48.312014	-46.176573	-47.957295
20.10	-47.530710	-45.960217	-47.723868
20.20	-46.924828	-46.171215	-48.649175
20.30	-45.878441	-48.165592	-49.500756
20.40	-44.892308	-50.243618	-49.889304
20.50	-45.128670	-51.879125	-49.129203
20.60	-45.388235	-52.422745	-48.690081
20.70	-47.320427	-52.139221	-47.397704
20.80	-48.322088	-50.817719	-45.821594
20.90	-49.521454	-49.189774	-44.032700
21.00	-50.315882	-48.345881	-43.284881
21.10	-50.517086	-47.541422	-44.657210
21.20	-50.866294	-47.140057	-47.240746
21.30	-51.033625	-47.783301	-49.640253
21.40	-51.049826	-48.650657	-51.514888
21.50	-51.826241	-50.028620	-52.252677
21.60	-52.201108	-51.250618	-52.671950
21.70	-52.492713	-51.629789	-52.861764
21.80	-52.039827	-51.072721	-52.658726
21.90	-50.912551	-50.920467	-52.071846
22.00	-50.654701	-50.220517	-51.807658
22.10	-50.570764	-50.482259	-51.641720
22.20	-50.950551	-51.255039	-51.555902
22.30	-50.562536	-51.673769	-51.760722
22.40	-50.000500	-51.847741	-51.554003
22.50	-48.492785	-51.762381	-51.111849
22.60	-47.281346	-51.039987	-50.497118
22.70	-46.193836	-50.888012	-49.933206
22.80	-46.093465	-49.637950	-49.615712
22.90	-46.747373	-49.934624	-49.697315
23.00	-46.958774	-50.112875	-49.868823
23.10	-46.718227	-51.176067	-49.943618
23.20	-46.280904	-52.275635	-50.261567
23.30	-45.891445	-52.718685	-49.587236
23.40	-46.203759	-53.086308	-49.091721
23.50	-45.966374	-52.376991	-48.488772
23.60	-46.638166	-51.408650	-48.556181
23.70	-46.665502	-50.061993	-48.624201
23.80	-48.224177	-49.079814	-47.906741
23.90	-49.007662	-47.158997	-46.119014
24.00	-50.149945	-45.355578	-44.550607
24.10	-51.039944	-44.858119	-43.745090
24.20	-51.530439	-45.256690	-44.296007
24.30	-52.149566	-47.476853	-45.404925
24.40	-52.166452	-48.920636	-46.440902
24.50	-52.137404	-48.590504	-47.321284
24.60	-51.691006	-47.871078	-48.703457
24.70	-51.673237	-46.544862	-50.286705
24.80	-52.245348	-46.627628	-52.366042
24.90	-52.929372	-47.822621	-53.597876
25.00	-53.317165	-49.101827	-53.748561
25.10	-52.993532	-49.852929	-53.217268
25.20	-52.471901	-49.453011	-52.608720
25.30	-51.582819	-49.463574	-52.217139
25.40	-50.154530	-49.894489	-52.477885
25.50	-48.720625	-51.060825	-52.617035
25.60	-48.056195	-52.098709	-53.005705
25.70	-48.117694	-51.426210	-52.468724
25.80	-48.822393	-50.848548	-51.656156
25.90	-49.817756	-50.628694	-51.000380
26.00	-50.192503	-51.058319	-50.623157
26.10	-50.171256	-51.787187	-50.319709
26.20	-49.072151	-51.962015	-50.376469
26.30	-48.093504	-51.944947	-50.253643
26.40	-47.838171	-51.035875	-50.220406
26.50	-48.059258	-50.870474	-50.376529
26.60	-48.563595	-50.817090	-50.536910
26.70	-49.259469	-50.877832	-50.582169
26.80	-49.452572	-51.646389	-50.214505
26.90	-50.118911	-51.523999	-49.632915
27.00	-50.285222	-52.034058	-48.385038
27.10	-49.794699	-52.113727	-47.780171
27.20	-48.511393	-51.955136	-47.770976
27.30	-47.067150	-51.300774	-48.519272
27.40	-46.563577	-50.521283	-49.498361
27.50	-47.528355	-49.668853	-50.279086
27.60	-49.013610	-49.457277	-50.234196
27.70	-50.124895	-49.673354	-49.756152
27.80	-50.716867	-49.647682	-49.037342
27.90	-49.718893	-48.836759	-48.932350
28.00	-49.052122	-47.185881	-48.399504
28.10	-48.780699	-45.950324	-48.631642
28.20	-48.392460	-46.122577	-48.395054
28.30	-49.373456	-47.299358	-48.926197
28.40	-49.815389	-48.918671	-48.799263
28.50	-50.436621	-49.566965	-48.754007
28.60	-51.161346	-48.618064	-48.686137
28.70	-51.891701	-47.733495	-48.312914
28.80	-52.187892	-46.301806	-47.448269
28.90	-52.342888	-47.091770	-46.200086
29.00	-51.754483	-47.686224	-45.760820
29.10	-51.196817	-49.751003	-46.635829
29.20	-50.531859	-51.407941	-47.683772
29.30	-50.281585	-52.810910	-49.570175
29.40	-50.830152	-53.264408	-50.621704
29.50	-51.434687	-53.104398	-52.066355
29.60	-52.701922	-52.650592	-53.378448
29.70	-53.128274	-52.694850	-54.220916
29.80	-53.051941	-52.350138	-54.578458
29.90	-52.174142	-51.712350	-54.543266
30.00	-51.727576	-51.074659	-54.167546
30.10	-50.987522	-50.302647	-53.262462
30.20	-50.251793	-49.550193	-52.088890
30.30	-49.584816	-48.827699	-51.092213
30.40	-48.142312	-48.147218	-49.468066
30.50	-47.429698	-48.096576	-48.643810
30.60	-46.280254	-47.915249	-47.597666
30.70	-45.927347	-47.952988	-47.193930
30.80	-46.436230	-47.984224	-47.281870
30.90	-46.739214	-47.766562	-47.712452
31.00	-48.343428	-48.615568	-47.509996
31.10	-49.279992	-49.502078	-47.401771
31.20	-50.316029	-49.955021	-47.281291
31.30	-51.277664	-50.308059	-47.115821
31.40	-51.561162	-50.150571	-47.465427
31.50	-51.288050	-50.665972	-47.282265
31.60	-50.478396	-50.598951	-45.919320
31.70	-48.608203	-50.624810	-44.873439
31.80	-47.908262	-50.719411	-44.306469
31.90	-47.385015	-51.390848	-44.886523
32.00	-48.560887	-52.181177	-46.816377
32.10	-49.508739	-52.786391	-49.661247
32.20	-50.185383	-52.493442	-52.408803
32.30	-49.728150	-51.456604	-54.597052
32.40	-49.279184	-49.855689	-55.824323
32.50	-49.340083	-48.487822	-56.317621
32.60	-49.166000	-48.258456	-56.441649
32.70	-48.880735	-48.652162	-56.174030
32.80	-48.134988	-50.067763	-55.732347
32.90	-47.118606	-50.697046	-55.137022
33.00	-46.614812	-51.097719	-54.683965
33.10	-47.496030	-50.895308	-54.031732
33.20	-48.023497	-51.016524	-53.238735
33.30	-49.829014	-51.474161	-51.906642
33.40	-50.440662	-52.206427	-50.454537
33.50	-50.903519	-52.290239	-49.782038
33.60	-50.945636	-52.291733	-49.086074
33.70	-50.844796	-52.131570	-48.682742
33.80	-49.472102	-51.814426	-47.999865
33.90	-49.272350	-50.920284	-47.000966
34.00	-48.454045	-50.245793	-46.915204
34.10	-48.992835	-49.669092	-47.015858
34.20	-49.649244	-49.368456	-46.901113
34.30	-50.713083	-48.500418	-46.953920
34.40	-51.407610	-46.988161	-46.567519
34.50	-51.530252	-46.150096	-46.616142
34.60	-51.577798	-45.426860	-46.580605
34.70	-51.378244	-47.151787	-46.870069
34.80	-51.432560	-48.471790	-47.632812
34.90	-51.611927	-49.947453	-48.931646
35.00	-51.560780	-50.933788	-49.948098
35.10	-51.389549	-51.603384	-50.857390
35.20	-51.385354	-51.907136	-51.612361
35.30	-50.444934	-51.621181	-52.063769
35.40	-49.327689	-51.039051	-52.743904
35.50	-48.694545	-49.634301	-52.859366
35.60	-48.754251	-49.241373	-52.720359
35.70	-49.549010	-48.782317	-51.760653
35.80	-50.439516	-49.079586	-50.957613
35.90	-51.087928	-49.391446	-50.170770
36.00	-50.697661	-50.121874	-49.403882
36.10	-50.493346	-50.678780	-49.487373
36.20	-49.099824	-51.097796	-50.469986
36.30	-47.246332	-51.778234	-51.306401
36.40	-46.409508	-51.807783	-52.095515
36.50	-46.630223	-52.305539	-51.747400
36.60	-48.421490	-52.410523	-51.053428
36.70	-50.657927	-52.585575	-50.622322
36.80	-52.420876	-51.642437	-50.278583
36.90	-53.348117	-51.118378	-49.898849
37.00	-53.565806	-50.274187	-48.724278
37.10	-52.744271	-50.638054	-47.353832
37.20	-51.362618	-51.109985	-47.178770
37.30	-50.078374	-51.413647	-47.502452
37.40	-49.184769	-51.202652	-48.598678
37.50	-48.840017	-50.674837	-48.843479
37.60	-49.339456	-49.141154	-48.413597
37.70	-49.701766	-47.431591	-47.559449
37.80	-50.375624	-47.447627	-46.718157
37.90	-50.542355	-47.962326	-46.236840
38.00	-49.489128	-49.763881	-47.277434
38.10	-47.781356	-51.244450	-47.995636
38.20	-47.143785	-52.188805	-49.442847
38.30	-47.568923	-52.459118	-49.893747
38.40	-49.645911	-52.264951	-50.428556
38.50	-50.531237	-52.032129	-50.280797
38.60	-51.566383	-51.086328	-50.128730
38.70	-52.098474	-50.708784	-49.730701
38.80	-52.798507	-49.986782	-50.030344
38.90	-53.053078	-50.244609	-50.404430
39.00	-51.995372	-50.303616	-51.776063
39.10	-51.850232	-49.816693	-52.487844
39.20	-51.582849	-48.284919	-53.279955
39.30	-52.527099	-47.027397	-53.126482
39.40	-53.254803	-46.828139	-52.675093
39.50	-53.130952	-47.161731	-51.601169
39.60	-51.563402	-48.664197	-50.493613
39.70	-50.625478	-49.354374	-50.011863
39.80	-49.084132	-50.585056	-50.069053
39.90	-49.728020	-51.594972	-50.478835
40.00	-50.648579	-52.421459	-49.672761
40.10	-51.835977	-51.914600	-49.029455
40.20	-52.312634	-51.353961	-48.667498
40.30	-51.945491	-50.056759	-49.756468
40.40	-51.732945	-47.796160	-50.873779
40.50	-51.379134	-46.042751	-51.874975
40.60	-51.524762	-45.296075	-52.205361
40.70	-50.229739	-46.321725	-52.111800
40.80	-48.644972	-48.244941	-51.365657
40.90	-46.937701	-49.906701	-50.486942
41.00	-46.645286	-50.847912	-49.641658
41.10	-46.623824	-51.177305	-49.050183
41.20	-46.496817	-51.398527	-49.278692
41.30	-45.999955	-50.797824	-49.926367
41.40	-45.836541	-50.990115	-50.417818
41.50	-46.750561	-50.150311	-49.986495
41.60	-49.026382	-49.275052	-49.804669
41.70	-51.623783	-48.524925	-49.447814
41.80	-53.431740	-49.003959	-50.480285
41.90	-54.316857	-50.311649	-51.691445
42.00	-54.264932	-52.205511	-52.762657
42.10	-54.520245	-53.690868	-53.334913
42.20	-54.800142	-54.192655	-53.213806
42.30	-55.108599	-53.622278	-52.268863
42.40	-54.924392	-53.213135	-51.205670
42.50	-54.374370	-52.918807	-50.487488
42.60	-53.350015	-53.008840	-49.826571
42.70	-52.006249	-52.891137	-49.196778
42.80	-51.227221	-52.212325	-47.327911
42.90	-50.793636	-50.665035	-45.424104
43.00	-50.991733	-49.301092	-44.301068
43.10	-51.773987	-47.732453	-44.783267
43.20	-52.412721	-47.897568	-46.406342
43.30	-52.859346	-48.488970	-47.719463
43.40	-52.406657	-49.620809	-48.903265
43.50	-51.678176	-50.186023	-49.206225
43.60	-50.155597	-49.847380	-50.227728
43.70	-49.531178	-48.897601	-50.287033
43.80	-48.750421	-48.012325	-50.782428
43.90	-47.824545	-47.471935	-50.341778
44.00	-47.784947	-47.060235	-49.360861
44.10	-47.239873	-46.694038	-47.923760
44.20	-47.351060	-46.532116	-47.646181
44.30	-47.650395	-46.919685	-47.389358
44.40	-48.096814	-47.911076	-48.020356
44.50	-49.097720	-49.095407	-48.550173
44.60	-49.241116	-49.542679	-49.047388
44.70	-49.867950	-48.840209	-49.414097
44.80	-50.511234	-48.488082	-49.335372
44.90	-51.457569	-48.983264	-49.689679
45.00	-51.970150	-49.884572	-50.216224
45.10	-52.418100	-51.513020	-51.269771
45.20	-52.006457	-52.324621	-51.936999
45.30	-51.964071	-52.422714	-51.568995
45.40	-51.656636	-52.369181	-50.165045
45.50	-51.371156	-52.075406	-49.655244
45.60	-50.538358	-51.847279	-49.412229
45.70	-49.489749	-52.151135	-50.049526
45.80	-49.693493	-52.110141	-50.842032
45.90	-50.145690	-52.710413	-50.847143
46.00	-51.766366	-52.934432	-51.419374
46.10	-52.263024	-52.955423	-51.555650
46.20	-52.513788	-52.797324	-52.476935
46.30	-52.164604	-52.393917	-53.442031
46.40	-51.792731	-51.210511	-54.329541
46.50	-51.629215	-50.290349	-55.054395
46.60	-50.677863	-49.947896	-55.214868
46.70	-49.563026	-50.721491	-54.989546
46.80	-47.677559	-52.416919	-54.476871
46.90	-46.461562	-53.720535	-53.581774
47.00	-46.432486	-54.057233	-52.401585
47.10	-46.911926	-54.004953	-50.590917
47.20	-48.524842	-53.667671	-47.705511
47.30	-49.272576	-53.218124	-44.525437
47.40	-49.389238	-52.726670	-41.985084
47.50	-50.515944	-52.399840	-41.833720
47.60	-51.006923	-51.791637	-44.067861
47.70	-51.714481	-51.174486	-47.689816
47.80	-51.272716	-49.476232	-51.279940
47.90	-50.568601	-48.324880	-53.123426
48.00	-50.403801	-47.068209	-53.649430
48.10	-50.839577	-47.204263	-53.038673
48.20	-51.375772	-48.412387	-51.840581
48.30	-51.990890	-49.587243	-51.229848
48.40	-51.905278	-51.459841	-50.072027
48.50	-51.455189	-52.460799	-49.303189
48.60	-50.173392	-52.973962	-49.298940
48.70	-49.235244	-52.703240	-48.847678
48.80	-49.024274	-51.631545	-49.279782
48.90	-49.715312	-50.647216	-49.659637
49.00	-51.074824	-49.952072	-50.580132
49.10	-52.076754	-50.116743	-51.552104
49.20	-52.732461	-50.218403	-52.115418
49.30	-52.483515	-50.903291	-51.725037
49.40	-52.069746	-50.835999	-51.380784
49.50	-51.721875	-50.178480	-51.290547
49.60	-51.543719	-49.063676	-52.166006
49.70	-51.142976	-47.440888	-53.240918
49.80	-50.622782	-46.051768	-53.982334
49.90	-49.989424	-45.917957	-54.267256
50.00	-50.056701	-46.760328	-54.230045
50.10	-50.164929	-48.946600	-53.885940
50.20	-50.946115	-50.797793	-53.005477
50.30	-51.040908	-52.063328	-51.667430
50.40	-51.035735	-51.933003	-50.648700
50.50	-50.691149	-51.114732	-50.442776
50.60	-49.317119	-49.501076	-50.972212
50.70	-48.799699	-47.821300	-51.490222
50.80	-48.663576	-47.523533	-51.337449
50.90	-49.114698	-47.733113	-51.178297
51.00	-49.992099	-49.436507	-50.196029
51.10	-50.436000	-50.829051	-49.585555
51.20	-49.289376	-52.166183	-47.794911
51.30	-48.138453	-52.701847	-47.705309
51.40	-47.536852	-52.883600	-46.790973
51.50	-47.832050	-52.963636	-46.797401
51.60	-49.809743	-52.739983	-47.429422
51.70	-50.986446	-52.221959	-47.756335
51.80	-51.486138	-51.704733	-48.092541
51.90	-52.008675	-51.274739	-48.717602
52.00	-52.104059	-50.954645	-49.530933
52.10	-52.455286	-51.254480	-50.354560
52.20	-53.048195	-51.209528	-51.072412
52.30	-53.036741	-50.716373	-50.510939
52.40	-52.934930	-49.629111	-50.568021
52.50	-52.949948	-48.058807	-50.583548
52.60	-52.350488	-47.968076	-51.453587
52.70	-52.308786	-48.506116	-51.480607
52.80	-51.406410	-50.540822	-51.104260
52.90	-51.221788	-51.748385	-50.161629
53.00	-51.268617	-52.073289	-50.152260
53.10	-51.543093	-51.788479	-50.466674
53.20	-51.213174	-51.842111	-51.086764
53.30	-49.900826	-52.020621	-51.960236
53.40	-49.790064	-52.201864	-52.379263
53.50	-49.839607	-52.048601	-52.551777
53.60	-51.008418	-51.829783	-52.180583
53.70	-51.613020	-51.466371	-52.065918
53.80	-51.780426	-50.372026	-51.651438
53.90	-51.024763	-48.521183	-51.704584
54.00	-50.278707	-46.274144	-51.773174
54.10	-49.887782	-45.736895	-51.948720
54.20	-50.306955	-46.595116	-51.523939
54.30	-51.371617	-48.393826	-50.939461
54.40	-51.923706	-50.517375	-50.546860
54.50	-52.360888	-51.446952	-50.977106
54.60	-51.773847	-52.554852	-51.492910
54.70	-51.339297	-53.187492	-51.458638
54.80	-51.112278	-53.656590	-49.782005
54.90	-50.562747	-53.340040	-48.792297
55.00	-50.296324	-52.669860	-48.321713
55.10	-50.230881	-51.626301	-48.897508